LAMMPS data file. CGCMM style. atom_style molecular generated by VMD/TopoTools v1.7 on Tue Oct 10 22:07:14 EDT 2017
 768 atoms
 1104 bonds
 0 angles
 0 dihedrals
 0 impropers
 1 atom types
 1 bond types
 0 angle types
 0 dihedral types
 0 improper types
 -0.500000 0.500000  xlo xhi
 -0.500000 0.500000  ylo yhi
 -0.500000 0.500000  zlo zhi

# Pair Coeffs
#
# 1  C

# Bond Coeffs
#
# 1  

 Masses

 1 12.010700 # C

 Atoms # molecular

1 1 1 5.388268 5.378522 12.206938 # C 
2 1 1 9.318474 2.503716 9.327821 # C 
3 1 1 12.195997 5.366236 5.367186 # C 
4 1 1 9.323606 9.321462 2.498030 # C 
5 1 1 5.370083 12.198085 5.361682 # C 
6 1 1 2.513229 9.331211 9.342961 # C 
7 1 1 2.983560 6.735594 13.451763 # C 
8 1 1 6.732948 2.972312 13.447306 # C 
9 1 1 6.224954 6.218704 9.754025 # C 
10 1 1 7.964427 1.253383 11.736006 # C 
11 1 1 11.724368 1.249392 7.964990 # C 
12 1 1 8.476947 4.963015 8.481646 # C 
13 1 1 13.439556 2.959767 6.722452 # C 
14 1 1 13.441308 6.722614 2.961597 # C 
15 1 1 9.746027 6.213887 6.212062 # C 
16 1 1 11.729600 7.964800 1.248550 # C 
17 1 1 7.964047 11.726558 1.246859 # C 
18 1 1 8.479223 8.478716 4.954408 # C 
19 1 1 6.720923 13.440126 2.956471 # C 
20 1 1 2.966137 13.443483 6.721916 # C 
21 1 1 6.217126 9.749207 6.210394 # C 
22 1 1 1.255604 11.735415 7.975362 # C 
23 1 1 1.262887 7.975706 11.750505 # C 
24 1 1 4.970883 8.482220 8.486579 # C 
25 1 1 6.411597 4.582027 11.587654 # C 
26 1 1 4.596784 6.407041 11.592109 # C 
27 1 1 5.167538 5.163022 13.448485 # C 
28 1 1 10.116468 3.122299 8.289236 # C 
29 1 1 8.284621 3.127098 10.128689 # C 
30 1 1 9.539502 1.251872 9.547669 # C 
31 1 1 11.577991 6.399950 4.570977 # C 
32 1 1 11.576161 4.570997 6.400100 # C 
33 1 1 13.440916 5.145032 5.146709 # C 
34 1 1 8.287324 10.119265 3.116830 # C 
35 1 1 10.121967 8.286533 3.118295 # C 
36 1 1 9.544217 9.542637 1.248569 # C 
37 1 1 4.578414 11.581722 6.397202 # C 
38 1 1 6.401365 11.578006 4.565732 # C 
39 1 1 5.146478 13.442102 5.141536 # C 
40 1 1 3.139977 8.292334 10.142200 # C 
41 1 1 3.131864 10.127911 8.297681 # C 
42 1 1 1.258264 9.555953 9.566358 # C 
43 1 1 1.559568 7.137662 14.069009 # C 
44 1 1 4.047891 5.987239 14.066681 # C 
45 1 1 3.311724 6.939896 12.218737 # C 
46 1 1 5.982760 4.044391 14.065732 # C 
47 1 1 7.133857 1.553510 14.065502 # C 
48 1 1 6.941055 3.294448 12.210775 # C 
49 1 1 5.032562 6.809109 10.365989 # C 
50 1 1 6.812506 5.020142 10.360860 # C 
51 1 1 6.758157 6.755270 8.549707 # C 
52 1 1 7.556214 0.626887 13.144742 # C 
53 1 1 8.719899 0.626496 10.664309 # C 
54 1 1 7.750177 2.502142 11.420234 # C 
55 1 1 10.655158 0.625376 8.722189 # C 
56 1 1 13.137836 0.624015 7.555069 # C 
57 1 1 11.406707 2.494471 7.751885 # C 
58 1 1 7.876408 4.357520 9.692435 # C 
59 1 1 9.683154 4.351177 7.879314 # C 
60 1 1 7.946248 6.162204 7.945753 # C 
61 1 1 14.061289 1.546160 7.129193 # C 
62 1 1 14.062194 4.026859 5.966852 # C 
63 1 1 12.198441 3.282702 6.935223 # C 
64 1 1 14.062649 5.966400 4.029232 # C 
65 1 1 14.062586 7.129618 1.547189 # C 
66 1 1 12.201569 6.934960 3.282865 # C 
67 1 1 10.351112 5.011645 6.806841 # C 
68 1 1 10.353070 6.806954 5.009111 # C 
69 1 1 8.547369 6.752608 6.748642 # C 
70 1 1 13.140639 7.555869 0.624087 # C 
71 1 1 10.660369 8.721614 0.624463 # C 
72 1 1 11.411808 7.750895 2.492920 # C 
73 1 1 8.720797 10.658534 0.624105 # C 
74 1 1 7.554825 13.138950 0.622754 # C 
75 1 1 7.751186 11.408464 2.490122 # C 
76 1 1 9.686806 7.877603 4.346374 # C 
77 1 1 7.878102 9.685450 4.345129 # C 
78 1 1 7.946830 7.946788 6.153726 # C 
79 1 1 7.127858 14.061444 1.544669 # C 
80 1 1 5.963654 14.062610 4.024239 # C 
81 1 1 6.935029 12.199539 3.277818 # C 
82 1 1 4.028766 14.063420 5.965117 # C 
83 1 1 1.550097 14.063991 7.130025 # C 
84 1 1 3.292180 12.205802 6.933855 # C 
85 1 1 6.808300 10.353116 5.006335 # C 
86 1 1 5.018522 10.357734 6.805310 # C 
87 1 1 6.754535 8.549614 6.748505 # C 
88 1 1 0.627423 13.143860 7.560305 # C 
89 1 1 0.628181 10.670203 8.739419 # C 
90 1 1 2.504321 11.417864 7.757021 # C 
91 1 1 0.630083 8.737879 10.682159 # C 
92 1 1 0.632804 7.562767 13.152546 # C 
93 1 1 2.517815 7.754903 11.433942 # C 
94 1 1 4.359830 9.691860 7.882624 # C 
95 1 1 4.369664 7.879395 9.700875 # C 
96 1 1 6.166983 7.948500 7.947376 # C 
97 1 1 -5.388268 -5.378522 12.206938 # C 
98 1 1 -5.388268 5.378522 -12.206938 # C 
99 1 1 -5.388268 5.378522 12.206938 # C 
100 1 1 5.388268 -5.378522 -12.206938 # C 
101 1 1 5.388268 -5.378522 12.206938 # C 
102 1 1 5.388268 5.378522 -12.206938 # C 
103 1 1 -5.388268 -5.378522 -12.206938 # C 
104 1 1 -9.318474 -2.503716 9.327821 # C 
105 1 1 -9.318474 2.503716 -9.327821 # C 
106 1 1 -9.318474 2.503716 9.327821 # C 
107 1 1 9.318474 -2.503716 -9.327821 # C 
108 1 1 9.318474 -2.503716 9.327821 # C 
109 1 1 9.318474 2.503716 -9.327821 # C 
110 1 1 -9.318474 -2.503716 -9.327821 # C 
111 1 1 -12.195997 -5.366236 5.367186 # C 
112 1 1 -12.195997 5.366236 -5.367186 # C 
113 1 1 -12.195997 5.366236 5.367186 # C 
114 1 1 12.195997 -5.366236 -5.367186 # C 
115 1 1 12.195997 -5.366236 5.367186 # C 
116 1 1 12.195997 5.366236 -5.367186 # C 
117 1 1 -12.195997 -5.366236 -5.367186 # C 
118 1 1 -9.323606 -9.321462 2.498030 # C 
119 1 1 -9.323606 9.321462 -2.498030 # C 
120 1 1 -9.323606 9.321462 2.498030 # C 
121 1 1 9.323606 -9.321462 -2.498030 # C 
122 1 1 9.323606 -9.321462 2.498030 # C 
123 1 1 9.323606 9.321462 -2.498030 # C 
124 1 1 -9.323606 -9.321462 -2.498030 # C 
125 1 1 -5.370083 -12.198085 5.361682 # C 
126 1 1 -5.370083 12.198085 -5.361682 # C 
127 1 1 -5.370083 12.198085 5.361682 # C 
128 1 1 5.370083 -12.198085 -5.361682 # C 
129 1 1 5.370083 -12.198085 5.361682 # C 
130 1 1 5.370083 12.198085 -5.361682 # C 
131 1 1 -5.370083 -12.198085 -5.361682 # C 
132 1 1 -2.513229 -9.331211 9.342961 # C 
133 1 1 -2.513229 9.331211 -9.342961 # C 
134 1 1 -2.513229 9.331211 9.342961 # C 
135 1 1 2.513229 -9.331211 -9.342961 # C 
136 1 1 2.513229 -9.331211 9.342961 # C 
137 1 1 2.513229 9.331211 -9.342961 # C 
138 1 1 -2.513229 -9.331211 -9.342961 # C 
139 1 1 -2.983560 -6.735594 13.451763 # C 
140 1 1 -2.983560 6.735594 -13.451763 # C 
141 1 1 -2.983560 6.735594 13.451763 # C 
142 1 1 2.983560 -6.735594 -13.451763 # C 
143 1 1 2.983560 -6.735594 13.451763 # C 
144 1 1 2.983560 6.735594 -13.451763 # C 
145 1 1 -2.983560 -6.735594 -13.451763 # C 
146 1 1 -6.732948 -2.972312 13.447306 # C 
147 1 1 -6.732948 2.972312 -13.447306 # C 
148 1 1 -6.732948 2.972312 13.447306 # C 
149 1 1 6.732948 -2.972312 -13.447306 # C 
150 1 1 6.732948 -2.972312 13.447306 # C 
151 1 1 6.732948 2.972312 -13.447306 # C 
152 1 1 -6.732948 -2.972312 -13.447306 # C 
153 1 1 -6.224954 -6.218704 9.754025 # C 
154 1 1 -6.224954 6.218704 -9.754025 # C 
155 1 1 -6.224954 6.218704 9.754025 # C 
156 1 1 6.224954 -6.218704 -9.754025 # C 
157 1 1 6.224954 -6.218704 9.754025 # C 
158 1 1 6.224954 6.218704 -9.754025 # C 
159 1 1 -6.224954 -6.218704 -9.754025 # C 
160 1 1 -7.964427 -1.253383 11.736006 # C 
161 1 1 -7.964427 1.253383 -11.736006 # C 
162 1 1 -7.964427 1.253383 11.736006 # C 
163 1 1 7.964427 -1.253383 -11.736006 # C 
164 1 1 7.964427 -1.253383 11.736006 # C 
165 1 1 7.964427 1.253383 -11.736006 # C 
166 1 1 -7.964427 -1.253383 -11.736006 # C 
167 1 1 -11.724368 -1.249392 7.964990 # C 
168 1 1 -11.724368 1.249392 -7.964990 # C 
169 1 1 -11.724368 1.249392 7.964990 # C 
170 1 1 11.724368 -1.249392 -7.964990 # C 
171 1 1 11.724368 -1.249392 7.964990 # C 
172 1 1 11.724368 1.249392 -7.964990 # C 
173 1 1 -11.724368 -1.249392 -7.964990 # C 
174 1 1 -8.476947 -4.963015 8.481646 # C 
175 1 1 -8.476947 4.963015 -8.481646 # C 
176 1 1 -8.476947 4.963015 8.481646 # C 
177 1 1 8.476947 -4.963015 -8.481646 # C 
178 1 1 8.476947 -4.963015 8.481646 # C 
179 1 1 8.476947 4.963015 -8.481646 # C 
180 1 1 -8.476947 -4.963015 -8.481646 # C 
181 1 1 -13.439556 -2.959767 6.722452 # C 
182 1 1 -13.439556 2.959767 -6.722452 # C 
183 1 1 -13.439556 2.959767 6.722452 # C 
184 1 1 13.439556 -2.959767 -6.722452 # C 
185 1 1 13.439556 -2.959767 6.722452 # C 
186 1 1 13.439556 2.959767 -6.722452 # C 
187 1 1 -13.439556 -2.959767 -6.722452 # C 
188 1 1 -13.441308 -6.722614 2.961597 # C 
189 1 1 -13.441308 6.722614 -2.961597 # C 
190 1 1 -13.441308 6.722614 2.961597 # C 
191 1 1 13.441308 -6.722614 -2.961597 # C 
192 1 1 13.441308 -6.722614 2.961597 # C 
193 1 1 13.441308 6.722614 -2.961597 # C 
194 1 1 -13.441308 -6.722614 -2.961597 # C 
195 1 1 -9.746027 -6.213887 6.212062 # C 
196 1 1 -9.746027 6.213887 -6.212062 # C 
197 1 1 -9.746027 6.213887 6.212062 # C 
198 1 1 9.746027 -6.213887 -6.212062 # C 
199 1 1 9.746027 -6.213887 6.212062 # C 
200 1 1 9.746027 6.213887 -6.212062 # C 
201 1 1 -9.746027 -6.213887 -6.212062 # C 
202 1 1 -11.729600 -7.964800 1.248550 # C 
203 1 1 -11.729600 7.964800 -1.248550 # C 
204 1 1 -11.729600 7.964800 1.248550 # C 
205 1 1 11.729600 -7.964800 -1.248550 # C 
206 1 1 11.729600 -7.964800 1.248550 # C 
207 1 1 11.729600 7.964800 -1.248550 # C 
208 1 1 -11.729600 -7.964800 -1.248550 # C 
209 1 1 -7.964047 -11.726558 1.246859 # C 
210 1 1 -7.964047 11.726558 -1.246859 # C 
211 1 1 -7.964047 11.726558 1.246859 # C 
212 1 1 7.964047 -11.726558 -1.246859 # C 
213 1 1 7.964047 -11.726558 1.246859 # C 
214 1 1 7.964047 11.726558 -1.246859 # C 
215 1 1 -7.964047 -11.726558 -1.246859 # C 
216 1 1 -8.479223 -8.478716 4.954408 # C 
217 1 1 -8.479223 8.478716 -4.954408 # C 
218 1 1 -8.479223 8.478716 4.954408 # C 
219 1 1 8.479223 -8.478716 -4.954408 # C 
220 1 1 8.479223 -8.478716 4.954408 # C 
221 1 1 8.479223 8.478716 -4.954408 # C 
222 1 1 -8.479223 -8.478716 -4.954408 # C 
223 1 1 -6.720923 -13.440126 2.956471 # C 
224 1 1 -6.720923 13.440126 -2.956471 # C 
225 1 1 -6.720923 13.440126 2.956471 # C 
226 1 1 6.720923 -13.440126 -2.956471 # C 
227 1 1 6.720923 -13.440126 2.956471 # C 
228 1 1 6.720923 13.440126 -2.956471 # C 
229 1 1 -6.720923 -13.440126 -2.956471 # C 
230 1 1 -2.966137 -13.443483 6.721916 # C 
231 1 1 -2.966137 13.443483 -6.721916 # C 
232 1 1 -2.966137 13.443483 6.721916 # C 
233 1 1 2.966137 -13.443483 -6.721916 # C 
234 1 1 2.966137 -13.443483 6.721916 # C 
235 1 1 2.966137 13.443483 -6.721916 # C 
236 1 1 -2.966137 -13.443483 -6.721916 # C 
237 1 1 -6.217126 -9.749207 6.210394 # C 
238 1 1 -6.217126 9.749207 -6.210394 # C 
239 1 1 -6.217126 9.749207 6.210394 # C 
240 1 1 6.217126 -9.749207 -6.210394 # C 
241 1 1 6.217126 -9.749207 6.210394 # C 
242 1 1 6.217126 9.749207 -6.210394 # C 
243 1 1 -6.217126 -9.749207 -6.210394 # C 
244 1 1 -1.255604 -11.735415 7.975362 # C 
245 1 1 -1.255604 11.735415 -7.975362 # C 
246 1 1 -1.255604 11.735415 7.975362 # C 
247 1 1 1.255604 -11.735415 -7.975362 # C 
248 1 1 1.255604 -11.735415 7.975362 # C 
249 1 1 1.255604 11.735415 -7.975362 # C 
250 1 1 -1.255604 -11.735415 -7.975362 # C 
251 1 1 -1.262887 -7.975706 11.750505 # C 
252 1 1 -1.262887 7.975706 -11.750505 # C 
253 1 1 -1.262887 7.975706 11.750505 # C 
254 1 1 1.262887 -7.975706 -11.750505 # C 
255 1 1 1.262887 -7.975706 11.750505 # C 
256 1 1 1.262887 7.975706 -11.750505 # C 
257 1 1 -1.262887 -7.975706 -11.750505 # C 
258 1 1 -4.970883 -8.482220 8.486579 # C 
259 1 1 -4.970883 8.482220 -8.486579 # C 
260 1 1 -4.970883 8.482220 8.486579 # C 
261 1 1 4.970883 -8.482220 -8.486579 # C 
262 1 1 4.970883 -8.482220 8.486579 # C 
263 1 1 4.970883 8.482220 -8.486579 # C 
264 1 1 -4.970883 -8.482220 -8.486579 # C 
265 1 1 -6.411597 -4.582027 11.587654 # C 
266 1 1 -6.411597 4.582027 -11.587654 # C 
267 1 1 -6.411597 4.582027 11.587654 # C 
268 1 1 6.411597 -4.582027 -11.587654 # C 
269 1 1 6.411597 -4.582027 11.587654 # C 
270 1 1 6.411597 4.582027 -11.587654 # C 
271 1 1 -6.411597 -4.582027 -11.587654 # C 
272 1 1 -4.596784 -6.407041 11.592109 # C 
273 1 1 -4.596784 6.407041 -11.592109 # C 
274 1 1 -4.596784 6.407041 11.592109 # C 
275 1 1 4.596784 -6.407041 -11.592109 # C 
276 1 1 4.596784 -6.407041 11.592109 # C 
277 1 1 4.596784 6.407041 -11.592109 # C 
278 1 1 -4.596784 -6.407041 -11.592109 # C 
279 1 1 -5.167538 -5.163022 13.448485 # C 
280 1 1 -5.167538 5.163022 -13.448485 # C 
281 1 1 -5.167538 5.163022 13.448485 # C 
282 1 1 5.167538 -5.163022 -13.448485 # C 
283 1 1 5.167538 -5.163022 13.448485 # C 
284 1 1 5.167538 5.163022 -13.448485 # C 
285 1 1 -5.167538 -5.163022 -13.448485 # C 
286 1 1 -10.116468 -3.122299 8.289236 # C 
287 1 1 -10.116468 3.122299 -8.289236 # C 
288 1 1 -10.116468 3.122299 8.289236 # C 
289 1 1 10.116468 -3.122299 -8.289236 # C 
290 1 1 10.116468 -3.122299 8.289236 # C 
291 1 1 10.116468 3.122299 -8.289236 # C 
292 1 1 -10.116468 -3.122299 -8.289236 # C 
293 1 1 -8.284621 -3.127098 10.128689 # C 
294 1 1 -8.284621 3.127098 -10.128689 # C 
295 1 1 -8.284621 3.127098 10.128689 # C 
296 1 1 8.284621 -3.127098 -10.128689 # C 
297 1 1 8.284621 -3.127098 10.128689 # C 
298 1 1 8.284621 3.127098 -10.128689 # C 
299 1 1 -8.284621 -3.127098 -10.128689 # C 
300 1 1 -9.539502 -1.251872 9.547669 # C 
301 1 1 -9.539502 1.251872 -9.547669 # C 
302 1 1 -9.539502 1.251872 9.547669 # C 
303 1 1 9.539502 -1.251872 -9.547669 # C 
304 1 1 9.539502 -1.251872 9.547669 # C 
305 1 1 9.539502 1.251872 -9.547669 # C 
306 1 1 -9.539502 -1.251872 -9.547669 # C 
307 1 1 -11.577991 -6.399950 4.570977 # C 
308 1 1 -11.577991 6.399950 -4.570977 # C 
309 1 1 -11.577991 6.399950 4.570977 # C 
310 1 1 11.577991 -6.399950 -4.570977 # C 
311 1 1 11.577991 -6.399950 4.570977 # C 
312 1 1 11.577991 6.399950 -4.570977 # C 
313 1 1 -11.577991 -6.399950 -4.570977 # C 
314 1 1 -11.576161 -4.570997 6.400100 # C 
315 1 1 -11.576161 4.570997 -6.400100 # C 
316 1 1 -11.576161 4.570997 6.400100 # C 
317 1 1 11.576161 -4.570997 -6.400100 # C 
318 1 1 11.576161 -4.570997 6.400100 # C 
319 1 1 11.576161 4.570997 -6.400100 # C 
320 1 1 -11.576161 -4.570997 -6.400100 # C 
321 1 1 -13.440916 -5.145032 5.146709 # C 
322 1 1 -13.440916 5.145032 -5.146709 # C 
323 1 1 -13.440916 5.145032 5.146709 # C 
324 1 1 13.440916 -5.145032 -5.146709 # C 
325 1 1 13.440916 -5.145032 5.146709 # C 
326 1 1 13.440916 5.145032 -5.146709 # C 
327 1 1 -13.440916 -5.145032 -5.146709 # C 
328 1 1 -8.287324 -10.119265 3.116830 # C 
329 1 1 -8.287324 10.119265 -3.116830 # C 
330 1 1 -8.287324 10.119265 3.116830 # C 
331 1 1 8.287324 -10.119265 -3.116830 # C 
332 1 1 8.287324 -10.119265 3.116830 # C 
333 1 1 8.287324 10.119265 -3.116830 # C 
334 1 1 -8.287324 -10.119265 -3.116830 # C 
335 1 1 -10.121967 -8.286533 3.118295 # C 
336 1 1 -10.121967 8.286533 -3.118295 # C 
337 1 1 -10.121967 8.286533 3.118295 # C 
338 1 1 10.121967 -8.286533 -3.118295 # C 
339 1 1 10.121967 -8.286533 3.118295 # C 
340 1 1 10.121967 8.286533 -3.118295 # C 
341 1 1 -10.121967 -8.286533 -3.118295 # C 
342 1 1 -9.544217 -9.542637 1.248569 # C 
343 1 1 -9.544217 9.542637 -1.248569 # C 
344 1 1 -9.544217 9.542637 1.248569 # C 
345 1 1 9.544217 -9.542637 -1.248569 # C 
346 1 1 9.544217 -9.542637 1.248569 # C 
347 1 1 9.544217 9.542637 -1.248569 # C 
348 1 1 -9.544217 -9.542637 -1.248569 # C 
349 1 1 -4.578414 -11.581722 6.397202 # C 
350 1 1 -4.578414 11.581722 -6.397202 # C 
351 1 1 -4.578414 11.581722 6.397202 # C 
352 1 1 4.578414 -11.581722 -6.397202 # C 
353 1 1 4.578414 -11.581722 6.397202 # C 
354 1 1 4.578414 11.581722 -6.397202 # C 
355 1 1 -4.578414 -11.581722 -6.397202 # C 
356 1 1 -6.401365 -11.578006 4.565732 # C 
357 1 1 -6.401365 11.578006 -4.565732 # C 
358 1 1 -6.401365 11.578006 4.565732 # C 
359 1 1 6.401365 -11.578006 -4.565732 # C 
360 1 1 6.401365 -11.578006 4.565732 # C 
361 1 1 6.401365 11.578006 -4.565732 # C 
362 1 1 -6.401365 -11.578006 -4.565732 # C 
363 1 1 -5.146478 -13.442102 5.141536 # C 
364 1 1 -5.146478 13.442102 -5.141536 # C 
365 1 1 -5.146478 13.442102 5.141536 # C 
366 1 1 5.146478 -13.442102 -5.141536 # C 
367 1 1 5.146478 -13.442102 5.141536 # C 
368 1 1 5.146478 13.442102 -5.141536 # C 
369 1 1 -5.146478 -13.442102 -5.141536 # C 
370 1 1 -3.139977 -8.292334 10.142200 # C 
371 1 1 -3.139977 8.292334 -10.142200 # C 
372 1 1 -3.139977 8.292334 10.142200 # C 
373 1 1 3.139977 -8.292334 -10.142200 # C 
374 1 1 3.139977 -8.292334 10.142200 # C 
375 1 1 3.139977 8.292334 -10.142200 # C 
376 1 1 -3.139977 -8.292334 -10.142200 # C 
377 1 1 -3.131864 -10.127911 8.297681 # C 
378 1 1 -3.131864 10.127911 -8.297681 # C 
379 1 1 -3.131864 10.127911 8.297681 # C 
380 1 1 3.131864 -10.127911 -8.297681 # C 
381 1 1 3.131864 -10.127911 8.297681 # C 
382 1 1 3.131864 10.127911 -8.297681 # C 
383 1 1 -3.131864 -10.127911 -8.297681 # C 
384 1 1 -1.258264 -9.555953 9.566358 # C 
385 1 1 -1.258264 9.555953 -9.566358 # C 
386 1 1 -1.258264 9.555953 9.566358 # C 
387 1 1 1.258264 -9.555953 -9.566358 # C 
388 1 1 1.258264 -9.555953 9.566358 # C 
389 1 1 1.258264 9.555953 -9.566358 # C 
390 1 1 -1.258264 -9.555953 -9.566358 # C 
391 1 1 -1.559568 -7.137662 14.069009 # C 
392 1 1 -1.559568 7.137662 -14.069009 # C 
393 1 1 -1.559568 7.137662 14.069009 # C 
394 1 1 1.559568 -7.137662 -14.069009 # C 
395 1 1 1.559568 -7.137662 14.069009 # C 
396 1 1 1.559568 7.137662 -14.069009 # C 
397 1 1 -1.559568 -7.137662 -14.069009 # C 
398 1 1 -4.047891 -5.987239 14.066681 # C 
399 1 1 -4.047891 5.987239 -14.066681 # C 
400 1 1 -4.047891 5.987239 14.066681 # C 
401 1 1 4.047891 -5.987239 -14.066681 # C 
402 1 1 4.047891 -5.987239 14.066681 # C 
403 1 1 4.047891 5.987239 -14.066681 # C 
404 1 1 -4.047891 -5.987239 -14.066681 # C 
405 1 1 -3.311724 -6.939896 12.218737 # C 
406 1 1 -3.311724 6.939896 -12.218737 # C 
407 1 1 -3.311724 6.939896 12.218737 # C 
408 1 1 3.311724 -6.939896 -12.218737 # C 
409 1 1 3.311724 -6.939896 12.218737 # C 
410 1 1 3.311724 6.939896 -12.218737 # C 
411 1 1 -3.311724 -6.939896 -12.218737 # C 
412 1 1 -5.982760 -4.044391 14.065732 # C 
413 1 1 -5.982760 4.044391 -14.065732 # C 
414 1 1 -5.982760 4.044391 14.065732 # C 
415 1 1 5.982760 -4.044391 -14.065732 # C 
416 1 1 5.982760 -4.044391 14.065732 # C 
417 1 1 5.982760 4.044391 -14.065732 # C 
418 1 1 -5.982760 -4.044391 -14.065732 # C 
419 1 1 -7.133857 -1.553510 14.065502 # C 
420 1 1 -7.133857 1.553510 -14.065502 # C 
421 1 1 -7.133857 1.553510 14.065502 # C 
422 1 1 7.133857 -1.553510 -14.065502 # C 
423 1 1 7.133857 -1.553510 14.065502 # C 
424 1 1 7.133857 1.553510 -14.065502 # C 
425 1 1 -7.133857 -1.553510 -14.065502 # C 
426 1 1 -6.941055 -3.294448 12.210775 # C 
427 1 1 -6.941055 3.294448 -12.210775 # C 
428 1 1 -6.941055 3.294448 12.210775 # C 
429 1 1 6.941055 -3.294448 -12.210775 # C 
430 1 1 6.941055 -3.294448 12.210775 # C 
431 1 1 6.941055 3.294448 -12.210775 # C 
432 1 1 -6.941055 -3.294448 -12.210775 # C 
433 1 1 -5.032562 -6.809109 10.365989 # C 
434 1 1 -5.032562 6.809109 -10.365989 # C 
435 1 1 -5.032562 6.809109 10.365989 # C 
436 1 1 5.032562 -6.809109 -10.365989 # C 
437 1 1 5.032562 -6.809109 10.365989 # C 
438 1 1 5.032562 6.809109 -10.365989 # C 
439 1 1 -5.032562 -6.809109 -10.365989 # C 
440 1 1 -6.812506 -5.020142 10.360860 # C 
441 1 1 -6.812506 5.020142 -10.360860 # C 
442 1 1 -6.812506 5.020142 10.360860 # C 
443 1 1 6.812506 -5.020142 -10.360860 # C 
444 1 1 6.812506 -5.020142 10.360860 # C 
445 1 1 6.812506 5.020142 -10.360860 # C 
446 1 1 -6.812506 -5.020142 -10.360860 # C 
447 1 1 -6.758157 -6.755270 8.549707 # C 
448 1 1 -6.758157 6.755270 -8.549707 # C 
449 1 1 -6.758157 6.755270 8.549707 # C 
450 1 1 6.758157 -6.755270 -8.549707 # C 
451 1 1 6.758157 -6.755270 8.549707 # C 
452 1 1 6.758157 6.755270 -8.549707 # C 
453 1 1 -6.758157 -6.755270 -8.549707 # C 
454 1 1 -7.556214 -0.626887 13.144742 # C 
455 1 1 -7.556214 0.626887 -13.144742 # C 
456 1 1 -7.556214 0.626887 13.144742 # C 
457 1 1 7.556214 -0.626887 -13.144742 # C 
458 1 1 7.556214 -0.626887 13.144742 # C 
459 1 1 7.556214 0.626887 -13.144742 # C 
460 1 1 -7.556214 -0.626887 -13.144742 # C 
461 1 1 -8.719899 -0.626496 10.664309 # C 
462 1 1 -8.719899 0.626496 -10.664309 # C 
463 1 1 -8.719899 0.626496 10.664309 # C 
464 1 1 8.719899 -0.626496 -10.664309 # C 
465 1 1 8.719899 -0.626496 10.664309 # C 
466 1 1 8.719899 0.626496 -10.664309 # C 
467 1 1 -8.719899 -0.626496 -10.664309 # C 
468 1 1 -7.750177 -2.502142 11.420234 # C 
469 1 1 -7.750177 2.502142 -11.420234 # C 
470 1 1 -7.750177 2.502142 11.420234 # C 
471 1 1 7.750177 -2.502142 -11.420234 # C 
472 1 1 7.750177 -2.502142 11.420234 # C 
473 1 1 7.750177 2.502142 -11.420234 # C 
474 1 1 -7.750177 -2.502142 -11.420234 # C 
475 1 1 -10.655158 -0.625376 8.722189 # C 
476 1 1 -10.655158 0.625376 -8.722189 # C 
477 1 1 -10.655158 0.625376 8.722189 # C 
478 1 1 10.655158 -0.625376 -8.722189 # C 
479 1 1 10.655158 -0.625376 8.722189 # C 
480 1 1 10.655158 0.625376 -8.722189 # C 
481 1 1 -10.655158 -0.625376 -8.722189 # C 
482 1 1 -13.137836 -0.624015 7.555069 # C 
483 1 1 -13.137836 0.624015 -7.555069 # C 
484 1 1 -13.137836 0.624015 7.555069 # C 
485 1 1 13.137836 -0.624015 -7.555069 # C 
486 1 1 13.137836 -0.624015 7.555069 # C 
487 1 1 13.137836 0.624015 -7.555069 # C 
488 1 1 -13.137836 -0.624015 -7.555069 # C 
489 1 1 -11.406707 -2.494471 7.751885 # C 
490 1 1 -11.406707 2.494471 -7.751885 # C 
491 1 1 -11.406707 2.494471 7.751885 # C 
492 1 1 11.406707 -2.494471 -7.751885 # C 
493 1 1 11.406707 -2.494471 7.751885 # C 
494 1 1 11.406707 2.494471 -7.751885 # C 
495 1 1 -11.406707 -2.494471 -7.751885 # C 
496 1 1 -7.876408 -4.357520 9.692435 # C 
497 1 1 -7.876408 4.357520 -9.692435 # C 
498 1 1 -7.876408 4.357520 9.692435 # C 
499 1 1 7.876408 -4.357520 -9.692435 # C 
500 1 1 7.876408 -4.357520 9.692435 # C 
501 1 1 7.876408 4.357520 -9.692435 # C 
502 1 1 -7.876408 -4.357520 -9.692435 # C 
503 1 1 -9.683154 -4.351177 7.879314 # C 
504 1 1 -9.683154 4.351177 -7.879314 # C 
505 1 1 -9.683154 4.351177 7.879314 # C 
506 1 1 9.683154 -4.351177 -7.879314 # C 
507 1 1 9.683154 -4.351177 7.879314 # C 
508 1 1 9.683154 4.351177 -7.879314 # C 
509 1 1 -9.683154 -4.351177 -7.879314 # C 
510 1 1 -7.946248 -6.162204 7.945753 # C 
511 1 1 -7.946248 6.162204 -7.945753 # C 
512 1 1 -7.946248 6.162204 7.945753 # C 
513 1 1 7.946248 -6.162204 -7.945753 # C 
514 1 1 7.946248 -6.162204 7.945753 # C 
515 1 1 7.946248 6.162204 -7.945753 # C 
516 1 1 -7.946248 -6.162204 -7.945753 # C 
517 1 1 -14.061289 -1.546160 7.129193 # C 
518 1 1 -14.061289 1.546160 -7.129193 # C 
519 1 1 -14.061289 1.546160 7.129193 # C 
520 1 1 14.061289 -1.546160 -7.129193 # C 
521 1 1 14.061289 -1.546160 7.129193 # C 
522 1 1 14.061289 1.546160 -7.129193 # C 
523 1 1 -14.061289 -1.546160 -7.129193 # C 
524 1 1 -14.062194 -4.026859 5.966852 # C 
525 1 1 -14.062194 4.026859 -5.966852 # C 
526 1 1 -14.062194 4.026859 5.966852 # C 
527 1 1 14.062194 -4.026859 -5.966852 # C 
528 1 1 14.062194 -4.026859 5.966852 # C 
529 1 1 14.062194 4.026859 -5.966852 # C 
530 1 1 -14.062194 -4.026859 -5.966852 # C 
531 1 1 -12.198441 -3.282702 6.935223 # C 
532 1 1 -12.198441 3.282702 -6.935223 # C 
533 1 1 -12.198441 3.282702 6.935223 # C 
534 1 1 12.198441 -3.282702 -6.935223 # C 
535 1 1 12.198441 -3.282702 6.935223 # C 
536 1 1 12.198441 3.282702 -6.935223 # C 
537 1 1 -12.198441 -3.282702 -6.935223 # C 
538 1 1 -14.062649 -5.966400 4.029232 # C 
539 1 1 -14.062649 5.966400 -4.029232 # C 
540 1 1 -14.062649 5.966400 4.029232 # C 
541 1 1 14.062649 -5.966400 -4.029232 # C 
542 1 1 14.062649 -5.966400 4.029232 # C 
543 1 1 14.062649 5.966400 -4.029232 # C 
544 1 1 -14.062649 -5.966400 -4.029232 # C 
545 1 1 -14.062586 -7.129618 1.547189 # C 
546 1 1 -14.062586 7.129618 -1.547189 # C 
547 1 1 -14.062586 7.129618 1.547189 # C 
548 1 1 14.062586 -7.129618 -1.547189 # C 
549 1 1 14.062586 -7.129618 1.547189 # C 
550 1 1 14.062586 7.129618 -1.547189 # C 
551 1 1 -14.062586 -7.129618 -1.547189 # C 
552 1 1 -12.201569 -6.934960 3.282865 # C 
553 1 1 -12.201569 6.934960 -3.282865 # C 
554 1 1 -12.201569 6.934960 3.282865 # C 
555 1 1 12.201569 -6.934960 -3.282865 # C 
556 1 1 12.201569 -6.934960 3.282865 # C 
557 1 1 12.201569 6.934960 -3.282865 # C 
558 1 1 -12.201569 -6.934960 -3.282865 # C 
559 1 1 -10.351112 -5.011645 6.806841 # C 
560 1 1 -10.351112 5.011645 -6.806841 # C 
561 1 1 -10.351112 5.011645 6.806841 # C 
562 1 1 10.351112 -5.011645 -6.806841 # C 
563 1 1 10.351112 -5.011645 6.806841 # C 
564 1 1 10.351112 5.011645 -6.806841 # C 
565 1 1 -10.351112 -5.011645 -6.806841 # C 
566 1 1 -10.353070 -6.806954 5.009111 # C 
567 1 1 -10.353070 6.806954 -5.009111 # C 
568 1 1 -10.353070 6.806954 5.009111 # C 
569 1 1 10.353070 -6.806954 -5.009111 # C 
570 1 1 10.353070 -6.806954 5.009111 # C 
571 1 1 10.353070 6.806954 -5.009111 # C 
572 1 1 -10.353070 -6.806954 -5.009111 # C 
573 1 1 -8.547369 -6.752608 6.748642 # C 
574 1 1 -8.547369 6.752608 -6.748642 # C 
575 1 1 -8.547369 6.752608 6.748642 # C 
576 1 1 8.547369 -6.752608 -6.748642 # C 
577 1 1 8.547369 -6.752608 6.748642 # C 
578 1 1 8.547369 6.752608 -6.748642 # C 
579 1 1 -8.547369 -6.752608 -6.748642 # C 
580 1 1 -13.140639 -7.555869 0.624087 # C 
581 1 1 -13.140639 7.555869 -0.624087 # C 
582 1 1 -13.140639 7.555869 0.624087 # C 
583 1 1 13.140639 -7.555869 -0.624087 # C 
584 1 1 13.140639 -7.555869 0.624087 # C 
585 1 1 13.140639 7.555869 -0.624087 # C 
586 1 1 -13.140639 -7.555869 -0.624087 # C 
587 1 1 -10.660369 -8.721614 0.624463 # C 
588 1 1 -10.660369 8.721614 -0.624463 # C 
589 1 1 -10.660369 8.721614 0.624463 # C 
590 1 1 10.660369 -8.721614 -0.624463 # C 
591 1 1 10.660369 -8.721614 0.624463 # C 
592 1 1 10.660369 8.721614 -0.624463 # C 
593 1 1 -10.660369 -8.721614 -0.624463 # C 
594 1 1 -11.411808 -7.750895 2.492920 # C 
595 1 1 -11.411808 7.750895 -2.492920 # C 
596 1 1 -11.411808 7.750895 2.492920 # C 
597 1 1 11.411808 -7.750895 -2.492920 # C 
598 1 1 11.411808 -7.750895 2.492920 # C 
599 1 1 11.411808 7.750895 -2.492920 # C 
600 1 1 -11.411808 -7.750895 -2.492920 # C 
601 1 1 -8.720797 -10.658534 0.624105 # C 
602 1 1 -8.720797 10.658534 -0.624105 # C 
603 1 1 -8.720797 10.658534 0.624105 # C 
604 1 1 8.720797 -10.658534 -0.624105 # C 
605 1 1 8.720797 -10.658534 0.624105 # C 
606 1 1 8.720797 10.658534 -0.624105 # C 
607 1 1 -8.720797 -10.658534 -0.624105 # C 
608 1 1 -7.554825 -13.138950 0.622754 # C 
609 1 1 -7.554825 13.138950 -0.622754 # C 
610 1 1 -7.554825 13.138950 0.622754 # C 
611 1 1 7.554825 -13.138950 -0.622754 # C 
612 1 1 7.554825 -13.138950 0.622754 # C 
613 1 1 7.554825 13.138950 -0.622754 # C 
614 1 1 -7.554825 -13.138950 -0.622754 # C 
615 1 1 -7.751186 -11.408464 2.490122 # C 
616 1 1 -7.751186 11.408464 -2.490122 # C 
617 1 1 -7.751186 11.408464 2.490122 # C 
618 1 1 7.751186 -11.408464 -2.490122 # C 
619 1 1 7.751186 -11.408464 2.490122 # C 
620 1 1 7.751186 11.408464 -2.490122 # C 
621 1 1 -7.751186 -11.408464 -2.490122 # C 
622 1 1 -9.686806 -7.877603 4.346374 # C 
623 1 1 -9.686806 7.877603 -4.346374 # C 
624 1 1 -9.686806 7.877603 4.346374 # C 
625 1 1 9.686806 -7.877603 -4.346374 # C 
626 1 1 9.686806 -7.877603 4.346374 # C 
627 1 1 9.686806 7.877603 -4.346374 # C 
628 1 1 -9.686806 -7.877603 -4.346374 # C 
629 1 1 -7.878102 -9.685450 4.345129 # C 
630 1 1 -7.878102 9.685450 -4.345129 # C 
631 1 1 -7.878102 9.685450 4.345129 # C 
632 1 1 7.878102 -9.685450 -4.345129 # C 
633 1 1 7.878102 -9.685450 4.345129 # C 
634 1 1 7.878102 9.685450 -4.345129 # C 
635 1 1 -7.878102 -9.685450 -4.345129 # C 
636 1 1 -7.946830 -7.946788 6.153726 # C 
637 1 1 -7.946830 7.946788 -6.153726 # C 
638 1 1 -7.946830 7.946788 6.153726 # C 
639 1 1 7.946830 -7.946788 -6.153726 # C 
640 1 1 7.946830 -7.946788 6.153726 # C 
641 1 1 7.946830 7.946788 -6.153726 # C 
642 1 1 -7.946830 -7.946788 -6.153726 # C 
643 1 1 -7.127858 -14.061444 1.544669 # C 
644 1 1 -7.127858 14.061444 -1.544669 # C 
645 1 1 -7.127858 14.061444 1.544669 # C 
646 1 1 7.127858 -14.061444 -1.544669 # C 
647 1 1 7.127858 -14.061444 1.544669 # C 
648 1 1 7.127858 14.061444 -1.544669 # C 
649 1 1 -7.127858 -14.061444 -1.544669 # C 
650 1 1 -5.963654 -14.062610 4.024239 # C 
651 1 1 -5.963654 14.062610 -4.024239 # C 
652 1 1 -5.963654 14.062610 4.024239 # C 
653 1 1 5.963654 -14.062610 -4.024239 # C 
654 1 1 5.963654 -14.062610 4.024239 # C 
655 1 1 5.963654 14.062610 -4.024239 # C 
656 1 1 -5.963654 -14.062610 -4.024239 # C 
657 1 1 -6.935029 -12.199539 3.277818 # C 
658 1 1 -6.935029 12.199539 -3.277818 # C 
659 1 1 -6.935029 12.199539 3.277818 # C 
660 1 1 6.935029 -12.199539 -3.277818 # C 
661 1 1 6.935029 -12.199539 3.277818 # C 
662 1 1 6.935029 12.199539 -3.277818 # C 
663 1 1 -6.935029 -12.199539 -3.277818 # C 
664 1 1 -4.028766 -14.063420 5.965117 # C 
665 1 1 -4.028766 14.063420 -5.965117 # C 
666 1 1 -4.028766 14.063420 5.965117 # C 
667 1 1 4.028766 -14.063420 -5.965117 # C 
668 1 1 4.028766 -14.063420 5.965117 # C 
669 1 1 4.028766 14.063420 -5.965117 # C 
670 1 1 -4.028766 -14.063420 -5.965117 # C 
671 1 1 -1.550097 -14.063991 7.130025 # C 
672 1 1 -1.550097 14.063991 -7.130025 # C 
673 1 1 -1.550097 14.063991 7.130025 # C 
674 1 1 1.550097 -14.063991 -7.130025 # C 
675 1 1 1.550097 -14.063991 7.130025 # C 
676 1 1 1.550097 14.063991 -7.130025 # C 
677 1 1 -1.550097 -14.063991 -7.130025 # C 
678 1 1 -3.292180 -12.205802 6.933855 # C 
679 1 1 -3.292180 12.205802 -6.933855 # C 
680 1 1 -3.292180 12.205802 6.933855 # C 
681 1 1 3.292180 -12.205802 -6.933855 # C 
682 1 1 3.292180 -12.205802 6.933855 # C 
683 1 1 3.292180 12.205802 -6.933855 # C 
684 1 1 -3.292180 -12.205802 -6.933855 # C 
685 1 1 -6.808300 -10.353116 5.006335 # C 
686 1 1 -6.808300 10.353116 -5.006335 # C 
687 1 1 -6.808300 10.353116 5.006335 # C 
688 1 1 6.808300 -10.353116 -5.006335 # C 
689 1 1 6.808300 -10.353116 5.006335 # C 
690 1 1 6.808300 10.353116 -5.006335 # C 
691 1 1 -6.808300 -10.353116 -5.006335 # C 
692 1 1 -5.018522 -10.357734 6.805310 # C 
693 1 1 -5.018522 10.357734 -6.805310 # C 
694 1 1 -5.018522 10.357734 6.805310 # C 
695 1 1 5.018522 -10.357734 -6.805310 # C 
696 1 1 5.018522 -10.357734 6.805310 # C 
697 1 1 5.018522 10.357734 -6.805310 # C 
698 1 1 -5.018522 -10.357734 -6.805310 # C 
699 1 1 -6.754535 -8.549614 6.748505 # C 
700 1 1 -6.754535 8.549614 -6.748505 # C 
701 1 1 -6.754535 8.549614 6.748505 # C 
702 1 1 6.754535 -8.549614 -6.748505 # C 