LAMMPS data file. CGCMM style. atom_style atomic generated by VMD/TopoTools v1.6 on Wed Oct 05 14:47:25 EDT 2016
 12288 atoms
 0 bonds
 0 angles
 0 dihedrals
 0 impropers
 1 atom types
 0 bond types
 0 angle types
 0 dihedral types
 0 improper types
 -58.14374 58.14374  xlo xhi
 -58.14374 58.14374  ylo yhi
 -58.14374 58.14374  zlo zhi

# Pair Coeffs
#
# 1  C

 Masses

 1 12.010700 # C

 Atoms

1 1 21.361462 21.307322 48.188660 # C
2 1 36.687977 9.860842 36.742233 # C
3 1 11.789126 26.692095 53.115562 # C
4 1 26.708822 11.724517 53.169334 # C
5 1 24.588362 24.537762 38.454330 # C
6 1 31.340647 4.880173 46.325073 # C
7 1 46.260288 4.933930 31.357424 # C
8 1 33.461086 19.595160 33.511719 # C
9 1 25.380136 18.062077 45.761600 # C
10 1 18.154022 25.345158 45.695316 # C
11 1 20.488394 20.452761 53.146835 # C
12 1 39.895409 12.354190 32.704353 # C
13 1 32.669319 12.287904 39.987469 # C
14 1 37.561043 4.902657 37.596836 # C
15 1 6.131856 28.379210 55.578224 # C
16 1 16.081337 23.775822 55.603943 # C
17 1 13.066896 27.535318 48.148838 # C
18 1 23.801641 16.037066 55.618458 # C
19 1 28.385239 6.083927 55.614799 # C
20 1 27.549780 12.964504 48.245258 # C
21 1 19.886839 26.977709 40.835850 # C
22 1 27.002151 19.799952 40.900829 # C
23 1 26.716434 26.698792 33.722363 # C
24 1 29.664232 2.434696 51.965618 # C
25 1 34.247814 2.431027 42.012554 # C
26 1 30.499685 9.804266 45.085056 # C
27 1 41.968071 2.445536 34.273754 # C
28 1 51.917572 2.471257 29.670277 # C
29 1 44.982521 9.900674 30.514174 # C
30 1 31.047308 17.148663 38.249550 # C
31 1 38.162586 17.213659 31.071774 # C
32 1 31.333019 24.327120 31.350677 # C
33 1 19.177900 22.828754 49.414501 # C
34 1 22.868258 19.118315 49.441799 # C
35 1 22.002611 21.939617 45.720959 # C
36 1 35.181190 8.607703 38.931259 # C
37 1 38.871532 8.634997 35.220798 # C
38 1 36.046829 12.328541 36.109917 # C
39 1 14.399063 25.548174 51.881214 # C
40 1 9.620333 27.921164 51.860180 # C
41 1 11.330438 26.537306 55.594570 # C
42 1 27.931910 9.537429 51.937565 # C
43 1 25.570499 14.333750 51.935200 # C
44 1 26.553047 11.281316 55.620811 # C
45 1 26.829363 23.237043 37.285622 # C
46 1 23.291281 26.803663 37.256626 # C
47 1 23.629576 23.567436 40.850956 # C
48 1 32.478966 6.114305 43.715843 # C
49 1 30.117559 6.111960 48.512138 # C
50 1 31.496428 2.428677 46.768280 # C
51 1 48.429089 6.189319 30.128328 # C
52 1 43.650352 6.168282 32.501362 # C
53 1 46.718967 2.454910 31.512222 # C
54 1 34.758156 20.792871 31.245811 # C
55 1 31.220095 20.763861 34.812435 # C
56 1 34.419868 17.198540 34.482059 # C
57 1 27.240204 16.379993 44.559479 # C
58 1 24.113468 20.430525 44.515137 # C
59 1 24.757107 17.366531 48.221615 # C
60 1 20.511724 24.063831 44.478531 # C
61 1 16.484154 27.220959 44.468384 # C
62 1 17.446209 24.723721 48.163422 # C
63 1 22.455133 18.655785 51.918388 # C
64 1 18.702322 22.422668 51.898609 # C
65 1 20.271305 20.235710 55.611694 # C
66 1 41.565266 13.581130 30.828529 # C
67 1 37.537712 13.570973 33.985683 # C
68 1 40.603218 9.886082 33.325806 # C
69 1 33.935982 13.534362 37.619003 # C
70 1 30.809259 13.490034 41.669540 # C
71 1 33.292351 9.827891 40.683037 # C
72 1 39.347107 6.150887 35.626904 # C
73 1 35.594315 6.131107 39.393810 # C
74 1 37.778126 2.437786 37.813900 # C
75 1 3.113014 28.849253 56.808559 # C
76 1 8.555739 27.569353 56.821266 # C
77 1 6.737066 28.597569 53.088177 # C
78 1 13.624722 25.254095 56.827625 # C
79 1 18.174625 22.061192 56.831856 # C
80 1 16.403507 23.933552 53.131538 # C
81 1 10.324482 28.383335 49.375870 # C
82 1 14.977514 25.950731 49.394928 # C
83 1 13.875507 28.205568 45.690781 # C
84 1 22.095924 18.130196 56.835476 # C
85 1 25.276142 13.577020 56.837765 # C
86 1 23.959211 16.354082 53.161831 # C
87 1 27.579275 8.513743 56.836643 # C
88 1 28.850767 3.082763 56.831100 # C
89 1 28.602386 6.660271 53.161030 # C
90 1 25.974712 14.893593 49.467960 # C
91 1 28.390167 10.222242 49.475384 # C
92 1 28.214317 13.767889 45.793682 # C
93 1 17.394104 28.064281 42.046879 # C
94 1 21.348677 24.874628 42.044357 # C
95 1 20.888409 27.958706 38.450211 # C
96 1 24.921808 21.267555 42.081367 # C
97 1 28.075455 17.299572 42.132507 # C
98 1 27.971607 20.821842 38.504601 # C
99 1 24.370548 27.887819 34.897011 # C
100 1 27.899210 24.338238 34.918034 # C
101 1 27.857447 27.852251 31.373585 # C
102 1 29.198702 1.218383 54.966743 # C
103 1 30.470200 1.212837 49.535828 # C
104 1 29.447083 4.888495 51.389275 # C
105 1 32.773327 1.211710 44.472595 # C
106 1 35.953518 1.213999 39.919430 # C
107 1 34.090244 4.887664 41.695522 # C
108 1 29.659300 8.574152 47.827316 # C
109 1 32.074749 8.581551 43.155983 # C
110 1 29.835148 12.255844 44.281651 # C
111 1 39.874786 1.217620 35.988415 # C
112 1 44.424675 1.221847 32.795464 # C
113 1 41.645912 4.917951 34.116009 # C
114 1 49.493668 1.228206 30.480156 # C
115 1 54.936428 1.240913 29.200220 # C
116 1 51.312363 4.961320 29.451908 # C
117 1 43.071907 8.654577 32.098785 # C
118 1 47.724937 8.673641 29.666143 # C
119 1 44.173908 12.358740 29.843910 # C
120 1 29.974010 15.916995 40.749939 # C
121 1 33.127644 15.968129 36.781952 # C
122 1 30.077856 19.544884 37.227642 # C
123 1 36.700760 16.005146 33.174870 # C
124 1 40.655312 16.002638 29.985195 # C
125 1 37.161018 19.599298 30.090767 # C
126 1 30.150251 23.131445 33.711235 # C
127 1 33.678890 23.152485 30.161652 # C
128 1 30.192013 26.675890 30.197216 # C
129 1 22.407879 20.517878 47.578613 # C
130 1 20.580996 22.357248 47.562462 # C
131 1 21.090815 21.042057 49.427444 # C
132 1 37.468441 10.487039 35.692295 # C
133 1 35.641567 10.470888 37.531673 # C
134 1 36.958626 8.622055 37.007507 # C
135 1 10.427837 27.194710 53.732265 # C
136 1 12.870184 26.022198 53.741058 # C
137 1 12.064046 26.836870 51.872070 # C
138 1 26.040861 12.813265 53.783512 # C
139 1 27.208696 10.365260 53.783405 # C
140 1 26.853930 11.989317 51.938904 # C
141 1 23.442896 25.172132 39.043835 # C
142 1 25.217451 23.380999 39.061077 # C
143 1 25.096087 25.053108 37.264557 # C
144 1 30.840775 4.266100 47.684322 # C
145 1 32.008610 4.265988 45.236336 # C
146 1 31.195539 6.110608 46.060268 # C
147 1 45.179230 4.308428 32.027336 # C
148 1 47.621578 4.317221 30.854799 # C
149 1 45.985371 6.177427 31.212643 # C
150 1 32.832001 18.988413 34.668488 # C
151 1 34.606544 19.005659 32.877350 # C
152 1 32.953362 20.784931 32.996368 # C
153 1 24.414442 18.891693 46.365192 # C
154 1 25.972681 16.834053 46.384632 # C
155 1 25.740656 18.454241 44.538170 # C
156 1 16.930073 25.943888 46.307003 # C
157 1 18.974415 24.373281 46.314934 # C
158 1 18.549274 25.706469 44.469765 # C
159 1 19.447126 21.320999 53.761646 # C
160 1 21.352987 19.409662 53.768501 # C
161 1 20.652372 20.613585 51.908310 # C
162 1 39.075016 11.734570 33.676243 # C
163 1 41.119350 11.742505 32.105621 # C
164 1 39.500153 13.579745 32.343037 # C
165 1 32.076778 11.664878 41.215496 # C
166 1 33.635010 11.684313 39.157852 # C
167 1 32.308804 13.511336 39.595291 # C
168 1 36.696453 4.280988 38.639942 # C
169 1 38.602303 4.287840 36.728596 # C
170 1 37.397064 6.141186 37.436001 # C
171 1 7.597425 28.044125 54.962994 # C
172 1 4.929514 28.718756 54.948677 # C
173 1 5.869929 28.350203 56.816124 # C
174 1 17.245399 22.986351 54.990280 # C
175 1 15.018580 24.566988 54.985279 # C
176 1 15.971905 23.758249 56.829861 # C
177 1 14.387992 27.044121 47.534405 # C
178 1 12.104399 28.289894 47.528896 # C
179 1 12.703915 27.260979 49.386608 # C
180 1 24.589859 14.971758 55.007748 # C
181 1 23.013853 17.203264 55.004295 # C
182 1 23.786798 15.924835 56.836910 # C
183 1 28.722122 4.873513 54.999287 # C
184 1 28.052691 7.542833 55.005451 # C
185 1 28.355398 5.833790 56.834328 # C
186 1 28.297630 11.997064 47.632919 # C
187 1 27.062817 14.286908 47.626728 # C
188 1 27.277023 12.609173 49.475208 # C
189 1 21.095270 26.396757 40.235046 # C
190 1 19.143633 28.007114 40.242641 # C
191 1 19.418053 26.525988 42.039913 # C
192 1 28.019384 19.061630 40.313770 # C
193 1 26.428331 21.015314 40.285583 # C
194 1 26.554869 19.325624 42.107498 # C
195 1 27.874296 26.095200 33.140949 # C
196 1 26.112110 27.865494 33.132820 # C
197 1 26.163204 26.137478 34.899708 # C
198 1 29.996782 3.044050 50.506725 # C
199 1 29.327347 3.050218 53.176018 # C
200 1 29.694075 1.215154 52.215752 # C
201 1 35.035599 3.045189 40.846355 # C
202 1 33.459602 3.041740 43.077854 # C
203 1 34.262657 1.212565 42.124790 # C
204 1 30.986647 10.422792 43.762650 # C
205 1 29.751837 10.416612 46.052486 # C
206 1 30.772444 8.574312 45.440395 # C
207 1 43.030827 3.064204 33.482574 # C
208 1 40.804016 3.059202 35.063232 # C
209 1 42.077496 1.219611 34.291332 # C
210 1 53.119923 3.100807 29.330719 # C
211 1 50.451996 3.086491 30.005367 # C
212 1 52.179493 1.233349 29.699284 # C
213 1 45.945019 10.520619 29.759586 # C
214 1 43.661427 10.515105 31.005379 # C
215 1 45.345505 8.662900 30.788521 # C
216 1 31.621126 17.763906 37.034184 # C
217 1 30.030079 17.735723 38.987869 # C
218 1 31.494591 15.941999 38.723885 # C
219 1 38.905788 17.806873 30.042360 # C
220 1 36.954163 17.814459 31.652727 # C
221 1 38.631374 16.009598 31.523500 # C
222 1 31.937340 24.916662 30.183975 # C
223 1 30.175163 24.908525 31.954269 # C
224 1 31.886248 23.149775 31.911995 # C
225 1 18.035982 23.553135 50.029922 # C
226 1 20.023396 21.835295 50.041298 # C
227 1 19.464853 23.085445 48.174454 # C
228 1 21.876877 19.972565 50.054214 # C
229 1 23.586960 17.974337 50.067596 # C
230 1 23.128613 19.398367 48.204987 # C
231 1 20.907162 22.668579 46.327991 # C
232 1 22.722862 20.838844 46.345387 # C
233 1 22.368147 22.302616 44.494259 # C
234 1 34.462494 7.981908 40.075245 # C
235 1 36.172565 7.995287 38.077011 # C
236 1 34.920834 9.844517 38.651196 # C
237 1 38.026039 8.008202 36.214272 # C
238 1 40.013447 8.019576 34.496414 # C
239 1 38.584579 9.875048 34.964100 # C
240 1 35.326584 11.704117 37.210697 # C
241 1 37.142277 11.721509 35.380955 # C
242 1 35.681297 13.555244 35.746906 # C
243 1 15.648239 24.917391 51.263561 # C
244 1 13.386807 26.304478 51.254753 # C
245 1 14.157361 25.410667 53.124027 # C
246 1 11.012263 27.499865 51.244461 # C
247 1 8.535403 28.485846 51.229729 # C
248 1 9.310828 27.760784 53.104492 # C
249 1 12.659122 25.948475 54.979668 # C
250 1 10.180212 27.113644 54.972668 # C
251 1 11.147138 26.530594 56.824894 # C
252 1 28.491755 8.443254 51.318878 # C
253 1 27.513559 10.927684 51.323086 # C
254 1 27.772154 9.239805 53.167458 # C
255 1 26.324459 13.311650 51.321163 # C
256 1 24.942879 15.583560 51.314461 # C
257 1 25.432007 14.100165 53.167118 # C
258 1 27.127092 10.126911 55.008892 # C
259 1 25.966688 12.608412 55.009506 # C
260 1 26.546267 11.101109 56.837753 # C
261 1 27.931650 22.580606 36.705868 # C
262 1 26.233135 24.420252 36.680721 # C
263 1 26.321404 22.713137 38.476200 # C
264 1 24.465132 26.202290 36.666458 # C
265 1 22.630070 27.918941 36.668800 # C
266 1 22.776770 26.288853 38.444229 # C
267 1 24.740271 22.893345 40.259846 # C
268 1 22.961292 24.689459 40.241688 # C
269 1 23.184483 23.119358 42.059025 # C
270 1 33.106583 6.735043 42.466030 # C
271 1 31.725006 6.728347 44.737934 # C
272 1 32.617458 4.882381 43.949436 # C
273 1 30.535910 6.726437 47.121891 # C
274 1 29.557714 6.730654 49.606300 # C
275 1 30.277317 4.882057 48.809765 # C
276 1 32.082783 3.039986 45.441189 # C
277 1 30.922380 3.040605 47.922672 # C
278 1 31.503208 1.211724 46.948486 # C
279 1 49.514023 6.819776 29.563635 # C
280 1 47.037155 6.805039 30.549635 # C
281 1 48.738590 4.944998 30.288712 # C
282 1 44.662609 6.794746 31.745043 # C
283 1 42.401180 6.785934 33.132153 # C
284 1 43.892052 4.925461 32.638874 # C
285 1 47.869198 3.076816 30.935871 # C
286 1 45.390285 3.069812 32.101063 # C
287 1 46.902260 1.224580 31.518938 # C
288 1 35.419361 21.380701 30.130529 # C
289 1 33.584312 21.383034 31.847185 # C
290 1 35.272667 19.605270 31.760626 # C
291 1 31.816319 21.368761 33.629227 # C
292 1 30.117811 21.343611 35.468872 # C
293 1 31.728052 19.573282 35.336349 # C
294 1 35.088150 17.807810 33.360031 # C
295 1 33.309177 17.789644 35.156151 # C
296 1 34.864964 15.990474 34.930145 # C
297 1 28.140316 15.535197 43.959637 # C
298 1 26.702152 17.642469 43.940002 # C
299 1 26.871250 15.963740 45.780670 # C
300 1 25.134544 19.658159 43.916344 # C
301 1 23.447981 21.576145 43.893269 # C
302 1 23.753885 20.056221 45.740551 # C
303 1 25.659939 16.475397 47.613438 # C
304 1 24.104155 18.554804 47.596397 # C
305 1 24.500267 17.066114 49.456001 # C
306 1 21.650364 23.390127 43.874466 # C
307 1 19.747335 25.093142 43.862556 # C
308 1 20.134054 23.705282 45.705357 # C
309 1 17.742687 26.676760 43.858868 # C
310 1 15.638442 28.130383 43.863087 # C
311 1 16.066792 26.849398 45.690968 # C
312 1 18.631378 24.064774 47.549564 # C
313 1 16.565296 25.630957 47.540482 # C
314 1 17.137766 24.468773 49.403732 # C
315 1 23.385153 17.733189 51.304726 # C
316 1 21.665560 19.751183 51.293674 # C
317 1 22.306540 18.475092 53.154694 # C
318 1 19.796270 21.628204 51.282700 # C
319 1 17.787531 23.354139 51.272625 # C
320 1 18.517155 22.276289 53.139030 # C
321 1 21.255024 19.290836 54.999889 # C
322 1 19.328001 21.222776 54.995121 # C
323 1 20.220282 20.180107 56.833733 # C
324 1 42.410973 14.186435 29.919096 # C
325 1 40.306736 14.190646 31.372732 # C
326 1 41.982632 12.358544 31.200100 # C
327 1 38.302097 14.186950 32.956364 # C
328 1 36.399075 14.175037 34.659386 # C
329 1 37.915379 12.344148 34.344242 # C
330 1 41.484127 10.509027 32.418556 # C
331 1 39.418053 10.499940 33.984756 # C
332 1 40.911659 8.645769 33.580765 # C
333 1 34.601467 14.156230 36.473373 # C
334 1 32.914909 14.133155 38.391365 # C
335 1 34.295567 12.308952 37.993317 # C
336 1 31.347307 14.109501 40.407059 # C
337 1 29.909149 14.089879 42.514328 # C
338 1 31.178211 12.268843 42.085804 # C
339 1 33.945297 10.453108 39.494755 # C
340 1 32.389519 10.436071 41.574162 # C
341 1 33.549187 8.593506 40.983463 # C
342 1 40.261894 6.776872 34.695419 # C
343 1 38.253162 6.766796 36.421371 # C
344 1 39.532269 4.910461 35.773293 # C
345 1 36.383884 6.755823 38.298405 # C
346 1 34.664299 6.744775 40.316402 # C
347 1 35.742908 4.894801 39.574512 # C
348 1 38.721424 3.054363 36.826824 # C
349 1 36.794415 3.049595 38.758778 # C
350 1 37.829144 1.215742 37.869511 # C
351 1 1.568277 28.970751 57.426758 # C
352 1 4.368459 28.635765 57.431271 # C
353 1 3.412142 28.903236 55.563866 # C
354 1 7.112687 28.001617 57.434319 # C
355 1 9.774103 27.093428 57.436417 # C
356 1 8.778549 27.582855 55.587841 # C
357 1 5.250071 28.840254 53.701576 # C
358 1 7.882078 28.140987 53.720043 # C
359 1 7.080886 28.782047 51.842175 # C
360 1 12.330827 25.933523 57.437946 # C
361 1 14.764153 24.541176 57.439148 # C
362 1 13.769717 25.262337 55.599674 # C
363 1 17.058149 22.935024 57.440182 # C
364 1 19.199160 21.133419 57.441139 # C
365 1 18.252441 22.094946 55.607872 # C
366 1 15.195161 24.641598 53.748241 # C
367 1 17.390987 23.069471 53.754910 # C
368 1 16.614882 24.071838 51.889675 # C
369 1 8.903703 28.728531 49.987835 # C
370 1 11.348112 27.719351 50.002045 # C
371 1 10.717788 28.679539 48.140491 # C
372 1 13.690828 26.509100 50.011707 # C
373 1 15.922669 25.115328 50.020321 # C
374 1 15.311698 26.211412 48.155396 # C
375 1 12.522693 28.635090 46.301788 # C
376 1 14.778309 27.369175 46.303455 # C
377 1 14.318278 28.595213 44.472992 # C
378 1 21.174223 19.153177 57.442059 # C
379 1 22.969233 17.008976 57.442883 # C
380 1 22.125702 18.212252 55.615341 # C
381 1 24.568022 14.714235 57.443493 # C
382 1 25.952913 12.282914 57.443741 # C
383 1 25.283138 13.722311 55.620476 # C
384 1 23.096727 17.347279 53.775032 # C
385 1 24.664555 15.144759 53.780388 # C
386 1 24.099043 16.559298 51.927826 # C
387 1 27.105965 9.731023 57.443481 # C
388 1 28.008499 7.077015 57.442627 # C
389 1 27.593626 8.729424 55.618992 # C
390 1 28.638542 4.341967 57.441166 # C
391 1 28.970993 1.551032 57.439400 # C
392 1 28.904509 3.364173 55.608749 # C
393 1 28.149612 7.814865 53.779400 # C
394 1 29.024734 4.561324 53.488201 # C
395 1 28.784773 6.991037 51.930401 # C
396 1 25.142296 15.849228 50.079765 # C
397 1 26.529255 13.605825 50.088619 # C
398 1 26.235518 15.219345 48.236019 # C
399 1 27.731857 11.253365 50.091930 # C
400 1 29.024734 8.186006 49.863541 # C
401 1 28.683186 10.610610 48.246323 # C
402 1 27.385807 14.672648 46.400185 # C
403 1 29.024733 11.804368 46.245171 # C
404 1 28.599873 14.214186 44.574326 # C
405 1 16.104748 28.559902 42.654976 # C
406 1 18.186333 27.090561 42.645473 # C
407 1 17.882618 28.529112 40.848110 # C
408 1 20.172468 25.498859 42.646099 # C
409 1 22.062183 23.795204 42.656750 # C
410 1 21.802691 25.320803 40.837364 # C
411 1 19.652727 28.502735 39.052284 # C
412 1 21.587746 26.882133 39.039761 # C
413 1 21.416222 28.480705 37.266850 # C
414 1 23.852495 21.987808 42.675755 # C
415 1 25.538366 20.083529 42.700089 # C
416 1 25.364489 21.725014 40.873528 # C
417 1 27.112543 18.088486 42.725590 # C
418 1 29.024733 15.407747 42.641769 # C
419 1 28.535011 17.798389 40.927357 # C
420 1 26.908064 21.515783 39.087029 # C
421 1 29.024733 18.991077 39.058414 # C
422 1 28.487234 21.362759 37.314022 # C
423 1 23.174566 28.462971 35.490700 # C
424 1 24.999905 26.742416 35.484943 # C
425 1 24.929527 28.449581 33.722233 # C
426 1 26.765484 24.964495 35.497387 # C
427 1 29.024731 22.551388 35.498089 # C
428 1 28.454794 24.907631 33.738941 # C
429 1 26.683182 28.440645 31.959455 # C
430 1 29.024731 26.088238 31.961233 # C
431 1 28.437943 28.436340 30.199917 # C
432 1 29.078476 0.610074 56.498455 # C
433 1 29.410929 0.608308 53.707554 # C
434 1 29.144960 2.440751 54.685341 # C
435 1 30.040974 0.606846 50.972538 # C
436 1 30.943512 0.605991 48.318562 # C
437 1 30.455849 2.430499 49.320148 # C
438 1 29.024734 5.175000 52.874531 # C
439 1 29.899857 4.270113 50.234695 # C
440 1 29.264696 6.119133 51.058510 # C
441 1 32.096561 0.605733 45.766693 # C
442 1 33.481441 0.605977 43.335388 # C
443 1 32.766331 2.429011 44.327301 # C
444 1 35.080215 0.606588 41.040653 # C
445 1 36.875210 0.607412 38.896450 # C
446 1 35.923740 2.434139 39.837368 # C
447 1 33.384907 4.269108 42.904850 # C
448 1 34.952724 4.274458 40.702332 # C
449 1 33.950413 6.121675 41.490299 # C
450 1 29.024734 8.799771 49.249775 # C
451 1 30.317612 7.957594 46.796204 # C
452 1 29.366282 9.803217 47.438938 # C
453 1 31.520210 7.960895 44.443752 # C
454 1 32.907166 7.969741 42.200356 # C
455 1 31.813946 9.813496 42.830219 # C
456 1 29.024733 12.415419 45.634117 # C
457 1 30.663656 11.649333 43.376900 # C
458 1 29.449593 13.475199 43.835342 # C
459 1 38.850258 0.608330 36.916195 # C
460 1 40.991253 0.609289 35.114574 # C
461 1 39.796974 2.441608 35.954651 # C
462 1 43.285240 0.610322 33.508396 # C
463 1 45.718567 0.611525 32.116024 # C
464 1 44.279686 2.449805 32.787216 # C
465 1 40.658432 4.294577 34.980103 # C
466 1 42.854252 4.301245 33.407959 # C
467 1 41.434540 6.159819 33.977715 # C
468 1 48.275295 0.613055 30.956093 # C
469 1 50.936726 0.615151 30.047880 # C
470 1 49.270863 2.461637 30.466650 # C
471 1 53.680973 0.618198 29.413713 # C
472 1 50.167347 4.329446 29.908503 # C
473 1 42.126755 8.029179 32.934204 # C
474 1 44.358593 8.037796 31.540413 # C
475 1 42.737724 9.894112 31.838099 # C
476 1 46.701309 8.047462 30.330141 # C
477 1 43.271111 11.746059 30.680317 # C
478 1 29.024733 16.014425 42.035088 # C
479 1 30.936916 15.323912 39.961033 # C
480 1 29.514454 17.122145 40.251114 # C
481 1 32.511089 15.349408 37.965984 # C
482 1 34.196953 15.373744 36.061703 # C
483 1 32.684963 17.175962 36.324486 # C
484 1 29.024733 19.592499 38.456989 # C
485 1 31.141396 18.962458 36.533707 # C
486 1 29.562231 20.735458 36.686722 # C
487 1 35.987255 15.392752 34.254299 # C
488 1 37.876965 15.403408 32.550636 # C
489 1 36.246746 17.212135 32.728687 # C
490 1 39.863091 15.404042 30.958923 # C
491 1 36.461685 19.009743 31.167345 # C
492 1 29.024731 23.147108 34.902367 # C
493 1 31.283974 22.552094 33.084980 # C
494 1 29.594671 24.310532 33.141842 # C
495 1 33.049541 22.564545 31.307056 # C
496 1 29.024731 26.678589 31.370884 # C
497 1 -21.361462 -21.307322 48.188660 # C
498 1 -21.361462 21.307322 -48.188660 # C
499 1 -21.361462 21.307322 48.188660 # C
500 1 -21.307322 -48.188660 -21.361462 # C
501 1 -21.307322 -48.188660 21.361462 # C
502 1 -21.307322 48.188660 -21.361462 # C
503 1 -21.307322 48.188660 21.361462 # C
504 1 -48.188660 -21.361462 -21.307322 # C
505 1 -48.188660 -21.361462 21.307322 # C
506 1 -48.188660 21.361462 -21.307322 # C
507 1 -48.188660 21.361462 21.307322 # C
508 1 48.188660 -21.361462 -21.307322 # C
509 1 48.188660 -21.361462 21.307322 # C
510 1 48.188660 21.361462 -21.307322 # C
511 1 48.188660 21.361462 21.307322 # C
512 1 21.307322 -48.188660 -21.361462 # C
513 1 21.307322 -48.188660 21.361462 # C
514 1 21.307322 48.188660 -21.361462 # C
515 1 21.307322 48.188660 21.361462 # C
516 1 21.361462 -21.307322 -48.188660 # C
517 1 21.361462 -21.307322 48.188660 # C
518 1 21.361462 21.307322 -48.188660 # C
519 1 -21.361462 -21.307322 -48.188660 # C
520 1 -36.687977 -9.860842 36.742233 # C
521 1 -36.687977 9.860842 -36.742233 # C
522 1 -36.687977 9.860842 36.742233 # C
523 1 -9.860842 -36.742233 -36.687977 # C
524 1 -9.860842 -36.742233 36.687977 # C
525 1 -9.860842 36.742233 -36.687977 # C
526 1 -9.860842 36.742233 36.687977 # C
527 1 -36.742233 -36.687977 -9.860842 # C
528 1 -36.742233 -36.687977 9.860842 # C
529 1 -36.742233 36.687977 -9.860842 # C
530 1 -36.742233 36.687977 9.860842 # C
531 1 36.742233 -36.687977 -9.860842 # C
532 1 36.742233 -36.687977 9.860842 # C
533 1 36.742233 36.687977 -9.860842 # C
534 1 36.742233 36.687977 9.860842 # C
535 1 9.860842 -36.742233 -36.687977 # C
536 1 9.860842 -36.742233 36.687977 # C
537 1 9.860842 36.742233 -36.687977 # C
538 1 9.860842 36.742233 36.687977 # C
539 1 36.687977 -9.860842 -36.742233 # C
540 1 36.687977 -9.860842 36.742233 # C
541 1 36.687977 9.860842 -36.742233 # C
542 1 -36.687977 -9.860842 -36.742233 # C
543 1 -11.789126 -26.692095 53.115562 # C
544 1 -11.789126 26.692095 -53.115562 # C
545 1 -11.789126 26.692095 53.115562 # C
546 1 -26.692095 -53.115562 -11.789126 # C
547 1 -26.692095 -53.115562 11.789126 # C
548 1 -26.692095 53.115562 -11.789126 # C
549 1 -26.692095 53.115562 11.789126 # C
550 1 -53.115562 -11.789126 -26.692095 # C
551 1 -53.115562 -11.789126 26.692095 # C
552 1 -53.115562 11.789126 -26.692095 # C
553 1 -53.115562 11.789126 26.692095 # C
554 1 53.115562 -11.789126 -26.692095 # C
555 1 53.115562 -11.789126 26.692095 # C
556 1 53.115562 11.789126 -26.692095 # C
557 1 53.115562 11.789126 26.692095 # C
558 1 26.692095 -53.115562 -11.789126 # C
559 1 26.692095 -53.115562 11.789126 # C
560 1 26.692095 53.115562 -11.789126 # C
561 1 26.692095 53.115562 11.789126 # C
562 1 11.789126 -26.692095 -53.115562 # C
563 1 11.789126 -26.692095 53.115562 # C
564 1 11.789126 26.692095 -53.115562 # C
565 1 -11.789126 -26.692095 -53.115562 # C
566 1 -26.708822 -11.724517 53.169334 # C
567 1 -26.708822 11.724517 -53.169334 # C
568 1 -26.708822 11.724517 53.169334 # C
569 1 -11.724517 -53.169334 -26.708822 # C
570 1 -11.724517 -53.169334 26.708822 # C
571 1 -11.724517 53.169334 -26.708822 # C
572 1 -11.724517 53.169334 26.708822 # C
573 1 -53.169334 -26.708822 -11.724517 # C
574 1 -53.169334 -26.708822 11.724517 # C
575 1 -53.169334 26.708822 -11.724517 # C
576 1 -53.169334 26.708822 11.724517 # C
577 1 53.169334 -26.708822 -11.724517 # C
578 1 53.169334 -26.708822 11.724517 # C
579 1 53.169334 26.708822 -11.724517 # C
580 1 53.169334 26.708822 11.724517 # C
581 1 11.724517 -53.169334 -26.708822 # C
582 1 11.724517 -53.169334 26.708822 # C
583 1 11.724517 53.169334 -26.708822 # C
584 1 11.724517 53.169334 26.708822 # C
585 1 26.708822 -11.724517 -53.169334 # C
586 1 26.708822 -11.724517 53.169334 # C
587 1 26.708822 11.724517 -53.169334 # C
588 1 -26.708822 -11.724517 -53.169334 # C
589 1 -24.588362 -24.537762 38.454330 # C
590 1 -24.588362 24.537762 -38.454330 # C
591 1 -24.588362 24.537762 38.454330 # C
592 1 -24.537762 -38.454330 -24.588362 # C
593 1 -24.537762 -38.454330 24.588362 # C
594 1 -24.537762 38.454330 -24.588362 # C
595 1 -24.537762 38.454330 24.588362 # C
596 1 -38.454330 -24.588362 -24.537762 # C
597 1 -38.454330 -24.588362 24.537762 # C
598 1 -38.454330 24.588362 -24.537762 # C
599 1 -38.454330 24.588362 24.537762 # C
600 1 38.454330 -24.588362 -24.537762 # C
601 1 38.454330 -24.588362 24.537762 # C
602 1 38.454330 24.588362 -24.537762 # C
603 1 38.454330 24.588362 24.537762 # C
604 1 24.537762 -38.454330 -24.588362 # C
605 1 24.537762 -38.454330 24.588362 # C
606 1 24.537762 38.454330 -24.588362 # C
607 1 24.537762 38.454330 24.588362 # C
608 1 24.588362 -24.537762 -38.454330 # C
609 1 24.588362 -24.537762 38.454330 # C
610 1 24.588362 24.537762 -38.454330 # C
611 1 -24.588362 -24.537762 -38.454330 # C
612 1 -31.340647 -4.880173 46.325073 # C
613 1 -31.340647 4.880173 -46.325073 # C
614 1 -31.340647 4.880173 46.325073 # C
615 1 -4.880173 -46.325073 -31.340647 # C
616 1 -4.880173 -46.325073 31.340647 # C
617 1 -4.880173 46.325073 -31.340647 # C
618 1 -4.880173 46.325073 31.340647 # C
619 1 -46.325073 -31.340647 -4.880173 # C
620 1 -46.325073 -31.340647 4.880173 # C
621 1 -46.325073 31.340647 -4.880173 # C
622 1 -46.325073 31.340647 4.880173 # C
623 1 46.325073 -31.340647 -4.880173 # C
624 1 46.325073 -31.340647 4.880173 # C
625 1 46.325073 31.340647 -4.880173 # C
626 1 46.325073 31.340647 4.880173 # C
627 1 4.880173 -46.325073 -31.340647 # C
628 1 4.880173 -46.325073 31.340647 # C
629 1 4.880173 46.325073 -31.340647 # C
630 1 4.880173 46.325073 31.340647 # C
631 1 31.340647 -4.880173 -46.325073 # C
632 1 31.340647 -4.880173 46.325073 # C
633 1 31.340647 4.880173 -46.325073 # C
634 1 -31.340647 -4.880173 -46.325073 # C
635 1 -46.260288 -4.933930 31.357424 # C
636 1 -46.260288 4.933930 -31.357424 # C
637 1 -46.260288 4.933930 31.357424 # C
638 1 -4.933930 -31.357424 -46.260288 # C
639 1 -4.933930 -31.357424 46.260288 # C
640 1 -4.933930 31.357424 -46.260288 # C
641 1 -4.933930 31.357424 46.260288 # C
642 1 -31.357424 -46.260288 -4.933930 # C
643 1 -31.357424 -46.260288 4.933930 # C
644 1 -31.357424 46.260288 -4.933930 # C
645 1 -31.357424 46.260288 4.933930 # C
646 1 31.357424 -46.260288 -4.933930 # C
647 1 31.357424 -46.260288 4.933930 # C
648 1 31.357424 46.260288 -4.933930 # C
649 1 31.357424 46.260288 4.933930 # C
650 1 4.933930 -31.357424 -46.260288 # C
651 1 4.933930 -31.357424 46.260288 # C
652 1 4.933930 31.357424 -46.260288 # C
653 1 4.933930 31.357424 46.260288 # C
654 1 46.260288 -4.933930 -31.357424 # C
655 1 46.260288 -4.933930 31.357424 # C
656 1 46.260288 4.933930 -31.357424 # C
657 1 -46.260288 -4.933930 -31.357424 # C
658 1 -33.461086 -19.595160 33.511719 # C
659 1 -33.461086 19.595160 -33.511719 # C
660 1 -33.461086 19.595160 33.511719 # C
661 1 -19.595160 -33.511719 -33.461086 # C
662 1 -19.595160 -33.511719 33.461086 # C
663 1 -19.595160 33.511719 -33.461086 # C
664 1 -19.595160 33.511719 33.461086 # C
665 1 -33.511719 -33.461086 -19.595160 # C
666 1 -33.511719 -33.461086 19.595160 # C
667 1 -33.511719 33.461086 -19.595160 # C
668 1 -33.511719 33.461086 19.595160 # C
669 1 33.511719 -33.461086 -19.595160 # C
670 1 33.511719 -33.461086 19.595160 # C
671 1 33.511719 33.461086 -19.595160 # C
672 1 33.511719 33.461086 19.595160 # C
673 1 19.595160 -33.511719 -33.461086 # C
674 1 19.595160 -33.511719 33.461086 # C
675 1 19.595160 33.511719 -33.461086 # C
676 1 19.595160 33.511719 33.461086 # C
677 1 33.461086 -19.595160 -33.511719 # C
678 1 33.461086 -19.595160 33.511719 # C
679 1 33.461086 19.595160 -33.511719 # C
680 1 -33.461086 -19.595160 -33.511719 # C
681 1 -25.380136 -18.062077 45.761600 # C
682 1 -25.380136 18.062077 -45.761600 # C
683 1 -25.380136 18.062077 45.761600 # C
684 1 -18.062077 -45.761600 -25.380136 # C
685 1 -18.062077 -45.761600 25.380136 # C
686 1 -18.062077 45.761600 -25.380136 # C
687 1 -18.062077 45.761600 25.380136 # C
688 1 -45.761600 -25.380136 -18.062077 # C
689 1 -45.761600 -25.380136 18.062077 # C
690 1 -45.761600 25.380136 -18.062077 # C
691 1 -45.761600 25.380136 18.062077 # C
692 1 45.761600 -25.380136 -18.062077 # C
693 1 45.761600 -25.380136 18.062077 # C
694 1 45.761600 25.380136 -18.062077 # C
695 1 45.761600 25.380136 18.062077 # C
696 1 18.062077 -45.761600 -25.380136 # C
697 1 18.062077 -45.761600 25.380136 # C
698 1 18.062077 45.761600 -25.380136 # C
699 1 18.062077 45.761600 25.380136 # C
700 1 25.380136 -18.062077 -45.761600 # C
701 1 25.380136 -18.062077 45.761600 # C
702 1 25.380136 18.062077 -45.761600 # C
703 1 -25.380136 -18.062077 -45.761600 # C
704 1 -18.154022 -25.345158 45.695316 # C
705 1 -18.154022 25.345158 -45.695316 # C
706 1 -18.154022 25.345158 45.695316 # C
707 1 -25.345158 -45.695316 -18.154022 # C
708 1 -25.345158 -45.695316 18.154022 # C
709 1 -25.345158 45.695316 -18.154022 # C
710 1 -25.345158 45.695316 18.154022 # C
711 1 -45.695316 -18.154022 -25.345158 # C
712 1 -45.695316 -18.154022 25.345158 # C
713 1 -45.695316 18.154022 -25.345158 # C
714 1 -45.695316 18.154022 25.345158 # C
715 1 45.695316 -18.154022 -25.345158 # C
716 1 45.695316 -18.154022 25.345158 # C
717 1 45.695316 18.154022 -25.345158 # C
718 1 45.695316 18.154022 25.345158 # C
719 1 25.345158 -45.695316 -18.154022 # C
720 1 25.345158 -45.695316 18.154022 # C
721 1 25.345158 45.695316 -18.154022 # C
722 1 25.345158 45.695316 18.154022 # C
723 1 18.154022 -25.345158 -45.695316 # C
724 1 18.154022 -25.345158 45.695316 # C
725 1 18.154022 25.345158 -45.695316 # C
726 1 -18.154022 -25.345158 -45.695316 # C
727 1 -20.488394 -20.452761 53.146835 # C
728 1 -20.488394 20.452761 -53.146835 # C
729 1 -20.488394 20.452761 53.146835 # C
730 1 -20.452761 -53.146835 -20.488394 # C
731 1 -20.452761 -53.146835 20.488394 # C
732 1 -20.452761 53.146835 -20.488394 # C
733 1 -20.452761 53.146835 20.488394 # C
734 1 -53.146835 -20.488394 -20.452761 # C
735 1 -53.146835 -20.488394 20.452761 # C
736 1 -53.146835 20.488394 -20.452761 # C
737 1 -53.146835 20.488394 20.452761 # C
738 1 53.146835 -20.488394 -20.452761 # C
739 1 53.146835 -20.488394 20.452761 # C