LAMMPS data file. CGCMM style. atom_style atomic generated by VMD/TopoTools v1.6 on Wed Oct 05 14:48:26 EDT 2016
 12288 atoms
 0 bonds
 0 angles
 0 dihedrals
 0 impropers
 1 atom types
 0 bond types
 0 angle types
 0 dihedral types
 0 improper types
 -58.15919 58.15919  xlo xhi
 -58.15919 58.15919  ylo yhi
 -58.15919 58.15919  zlo zhi

# Pair Coeffs
#
# 1  C

 Masses

 1 12.010700 # C

 Atoms

1 1 21.363489 21.309343 48.193233 # C
2 1 36.691460 9.861778 36.745720 # C
3 1 11.790244 26.694628 53.120602 # C
4 1 26.711357 11.725629 53.174377 # C
5 1 24.590694 24.540091 38.457981 # C
6 1 31.343620 4.880636 46.329468 # C
7 1 46.264679 4.934398 31.360399 # C
8 1 33.464260 19.597019 33.514900 # C
9 1 25.382544 18.063789 45.765945 # C
10 1 18.155745 25.347563 45.699654 # C
11 1 20.490337 20.454700 53.151878 # C
12 1 39.899193 12.355362 32.707455 # C
13 1 32.672421 12.289070 39.991261 # C
14 1 37.564606 4.903122 37.600403 # C
15 1 6.132438 28.381903 55.583496 # C
16 1 16.082863 23.778078 55.609219 # C
17 1 13.068136 27.537931 48.153404 # C
18 1 23.803900 16.038588 55.623734 # C
19 1 28.387932 6.084504 55.620075 # C
20 1 27.552395 12.965734 48.249836 # C
21 1 19.888725 26.980268 40.839725 # C
22 1 27.004713 19.801830 40.904713 # C
23 1 26.718969 26.701324 33.725559 # C
24 1 29.667048 2.434927 51.970547 # C
25 1 34.251064 2.431257 42.016541 # C
26 1 30.502581 9.805196 45.089333 # C
27 1 41.972054 2.445768 34.277008 # C
28 1 51.922497 2.471492 29.673092 # C
29 1 44.986790 9.901614 30.517069 # C
30 1 31.050255 17.150291 38.253178 # C
31 1 38.166210 17.215292 31.074720 # C
32 1 31.335993 24.329428 31.353653 # C
33 1 19.179722 22.830919 49.419193 # C
34 1 22.870428 19.120129 49.446491 # C
35 1 22.004700 21.941698 45.725300 # C
36 1 35.184528 8.608520 38.934952 # C
37 1 38.875217 8.635817 35.224140 # C
38 1 36.050251 12.329711 36.113342 # C
39 1 14.400430 25.550598 51.886135 # C
40 1 9.621246 27.923813 51.865101 # C
41 1 11.331513 26.539824 55.599846 # C
42 1 27.934559 9.538334 51.942490 # C
43 1 25.572926 14.335110 51.940128 # C
44 1 26.555567 11.282386 55.626091 # C
45 1 26.831909 23.239248 37.289162 # C
46 1 23.293491 26.806208 37.260159 # C
47 1 23.631819 23.569672 40.854832 # C
48 1 32.482048 6.114886 43.719994 # C
49 1 30.120419 6.112540 48.516743 # C
50 1 31.499414 2.428907 46.772717 # C
51 1 48.433681 6.189906 30.131187 # C
52 1 43.654495 6.168868 32.504444 # C
53 1 46.723400 2.455143 31.515213 # C
54 1 34.761456 20.794846 31.248775 # C
55 1 31.223057 20.765829 34.815739 # C
56 1 34.423138 17.200172 34.485332 # C
57 1 27.242788 16.381548 44.563705 # C
58 1 24.115757 20.432463 44.519363 # C
59 1 24.759457 17.368179 48.226192 # C
60 1 20.513670 24.066114 44.482750 # C
61 1 16.485718 27.223541 44.472603 # C
62 1 17.447865 24.726067 48.167992 # C
63 1 22.457264 18.657555 51.923317 # C
64 1 18.704098 22.424797 51.903530 # C
65 1 20.273230 20.237631 55.616970 # C
66 1 41.569210 13.582419 30.831455 # C
67 1 37.541275 13.572261 33.988907 # C
68 1 40.607071 9.887020 33.328972 # C
69 1 33.939201 13.535647 37.622574 # C
70 1 30.812181 13.491314 41.673492 # C
71 1 33.295509 9.828824 40.686893 # C
72 1 39.350838 6.151471 35.630283 # C
73 1 35.597691 6.131688 39.397549 # C
74 1 37.781708 2.438018 37.817490 # C
75 1 3.113309 28.851990 56.813950 # C
76 1 8.556551 27.571968 56.826660 # C
77 1 6.737706 28.600283 53.093212 # C
78 1 13.626015 25.256493 56.833019 # C
79 1 18.176350 22.063284 56.837246 # C
80 1 16.405064 23.935823 53.136581 # C
81 1 10.325461 28.386028 49.380554 # C
82 1 14.978935 25.953196 49.399612 # C
83 1 13.876824 28.208244 45.695114 # C
84 1 22.098021 18.131914 56.840870 # C
85 1 25.278542 13.578308 56.843159 # C
86 1 23.961485 16.355635 53.166878 # C
87 1 27.581894 8.514551 56.842037 # C
88 1 28.853504 3.083056 56.836494 # C
89 1 28.605101 6.660903 53.166073 # C
90 1 25.977177 14.895006 49.472656 # C
91 1 28.392862 10.223212 49.480080 # C
92 1 28.216995 13.769195 45.798027 # C
93 1 17.395754 28.066944 42.050869 # C
94 1 21.350702 24.876987 42.048347 # C
95 1 20.890390 27.961359 38.453857 # C
96 1 24.924173 21.269573 42.085358 # C
97 1 28.078117 17.301214 42.136505 # C
98 1 27.974260 20.823818 38.508255 # C
99 1 24.372862 27.890465 34.900322 # C
100 1 27.901857 24.340548 34.921345 # C
101 1 27.860090 27.854895 31.376560 # C
102 1 29.201471 1.218498 54.971958 # C
103 1 30.473091 1.212952 49.540527 # C
104 1 29.449877 4.888959 51.394154 # C
105 1 32.776436 1.211825 44.476814 # C
106 1 35.956928 1.214115 39.923218 # C
107 1 34.093479 4.888127 41.699478 # C
108 1 29.662113 8.574966 47.831852 # C
109 1 32.077793 8.582366 43.160076 # C
110 1 29.837978 12.257007 44.285851 # C
111 1 39.878571 1.217735 35.991829 # C
112 1 44.428890 1.221963 32.798573 # C
113 1 41.649864 4.918418 34.119247 # C
114 1 49.498363 1.228322 30.483047 # C
115 1 54.941643 1.241031 29.202991 # C
116 1 51.317230 4.961790 29.454704 # C
117 1 43.075993 8.655398 32.101833 # C
118 1 47.729465 8.674464 29.668959 # C
119 1 44.178101 12.359913 29.846743 # C
120 1 29.976854 15.918506 40.753803 # C
121 1 33.130787 15.969644 36.785442 # C
122 1 30.080709 19.546738 37.231174 # C
123 1 36.704243 16.006664 33.178017 # C
124 1 40.659168 16.004156 29.988041 # C
125 1 37.164543 19.601158 30.093620 # C
126 1 30.153112 23.133638 33.714432 # C
127 1 33.682087 23.154680 30.164513 # C
128 1 30.194878 26.678421 30.200081 # C
129 1 22.410004 20.519825 47.583130 # C
130 1 20.582949 22.359369 47.566975 # C
131 1 21.092815 21.044054 49.432137 # C
132 1 37.471996 10.488034 35.695683 # C
133 1 35.644947 10.471881 37.535236 # C
134 1 36.962132 8.622874 37.011021 # C
135 1 10.428827 27.197290 53.737366 # C
136 1 12.871405 26.024666 53.746159 # C
137 1 12.065191 26.839417 51.876991 # C
138 1 26.043331 12.814480 53.788612 # C
139 1 27.211279 10.366243 53.788509 # C
140 1 26.856478 11.990454 51.943832 # C
141 1 23.445122 25.174520 39.047539 # C
142 1 25.219845 23.383217 39.064781 # C
143 1 25.098467 25.055487 37.268093 # C
144 1 30.843700 4.266504 47.688847 # C
145 1 32.011646 4.266393 45.240627 # C
146 1 31.198500 6.111187 46.064636 # C
147 1 45.183514 4.308837 32.030376 # C
148 1 47.626099 4.317631 30.857727 # C
149 1 45.989735 6.178013 31.215605 # C
150 1 32.835114 18.990215 34.671780 # C
151 1 34.609829 19.007463 32.880470 # C
152 1 32.956490 20.786903 32.999500 # C
153 1 24.416758 18.893486 46.369591 # C
154 1 25.975145 16.835649 46.389030 # C
155 1 25.743097 18.455992 44.542393 # C
156 1 16.931679 25.946348 46.311398 # C
157 1 18.976215 24.375593 46.319328 # C
158 1 18.551035 25.708906 44.473984 # C
159 1 19.448971 21.323023 53.766750 # C
160 1 21.355015 19.411505 53.773602 # C
161 1 20.654331 20.615541 51.913235 # C
162 1 39.078724 11.735684 33.679436 # C
163 1 41.123253 11.743619 32.108665 # C
164 1 39.503902 13.581034 32.346104 # C
165 1 32.079823 11.665985 41.219406 # C
166 1 33.638203 11.685421 39.161572 # C
167 1 32.311867 13.512618 39.599049 # C
168 1 36.699932 4.281395 38.643608 # C
169 1 38.605965 4.288247 36.732079 # C
170 1 37.400616 6.141769 37.439552 # C
171 1 7.598146 28.046785 54.968208 # C
172 1 4.929982 28.721481 54.953892 # C
173 1 5.870486 28.352894 56.821514 # C
174 1 17.247036 22.988531 54.995499 # C
175 1 15.020005 24.569319 54.990494 # C
176 1 15.973421 23.760504 56.835255 # C
177 1 14.389357 27.046686 47.538918 # C
178 1 12.105548 28.292578 47.533405 # C
179 1 12.705121 27.263565 49.391293 # C
180 1 24.592192 14.973178 55.012966 # C
181 1 23.016037 17.204897 55.009514 # C
182 1 23.789057 15.926346 56.842304 # C
183 1 28.724850 4.873976 55.004505 # C
184 1 28.055351 7.543549 55.010670 # C
185 1 28.358088 5.834343 56.839722 # C
186 1 28.300316 11.998202 47.637440 # C
187 1 27.065384 14.288263 47.631245 # C
188 1 27.279612 12.610370 49.479904 # C
189 1 21.097273 26.399261 40.238865 # C
190 1 19.145449 28.009771 40.246460 # C
191 1 19.419895 26.528503 42.043900 # C
192 1 28.022043 19.063438 40.317593 # C
193 1 26.430840 21.017309 40.289406 # C
194 1 26.557388 19.327457 42.111492 # C
195 1 27.876942 26.097675 33.144093 # C
196 1 26.114590 27.868137 33.135963 # C
197 1 26.165688 26.139957 34.903019 # C
198 1 29.999628 3.044339 50.511520 # C
199 1 29.330128 3.050507 53.181061 # C
200 1 29.696892 1.215270 52.220703 # C
201 1 35.038921 3.045478 40.850227 # C
202 1 33.462780 3.042029 43.081944 # C
203 1 34.265907 1.212680 42.128788 # C
204 1 30.989588 10.423781 43.766804 # C
205 1 29.754660 10.417601 46.056858 # C
206 1 30.775364 8.575126 45.444706 # C
207 1 43.034912 3.064495 33.485752 # C
208 1 40.807888 3.059493 35.066559 # C
209 1 42.081490 1.219727 34.294586 # C
210 1 53.124962 3.101102 29.333502 # C
211 1 50.456783 3.086784 30.008215 # C
212 1 52.184444 1.233466 29.702103 # C
213 1 45.949375 10.521618 29.762409 # C
214 1 43.665569 10.516103 31.008320 # C
215 1 45.349808 8.663722 30.791443 # C
216 1 31.624126 17.765593 37.037697 # C
217 1 30.032928 17.737408 38.991566 # C
218 1 31.497580 15.943512 38.727562 # C
219 1 38.909477 17.808563 30.045212 # C
220 1 36.957668 17.816149 31.655729 # C
221 1 38.635040 16.011118 31.526491 # C
222 1 31.940369 24.919027 30.186838 # C
223 1 30.178026 24.910889 31.957300 # C
224 1 31.889273 23.151972 31.915024 # C
225 1 18.037695 23.555368 50.034672 # C
226 1 20.025295 21.837366 50.046047 # C
227 1 19.466700 23.087635 48.179028 # C
228 1 21.878952 19.974459 50.058964 # C
229 1 23.589197 17.976042 50.072346 # C
230 1 23.130808 19.400208 48.209560 # C
231 1 20.909145 22.670731 46.332390 # C
232 1 22.725018 20.840822 46.349781 # C
233 1 22.370268 22.304731 44.498478 # C
234 1 34.465763 7.982665 40.079048 # C
235 1 36.175999 7.996046 38.080624 # C
236 1 34.924149 9.845452 38.654865 # C
237 1 38.029648 8.008962 36.217705 # C
238 1 40.017242 8.020337 34.499687 # C
239 1 38.588242 9.875985 34.967415 # C
240 1 35.329933 11.705228 37.214230 # C
241 1 37.145802 11.722621 35.384312 # C
242 1 35.684685 13.556530 35.750298 # C
243 1 15.649724 24.919754 51.268429 # C
244 1 13.388077 26.306974 51.259617 # C
245 1 14.158704 25.413078 53.129070 # C
246 1 11.013308 27.502474 51.249325 # C
247 1 8.536213 28.488548 51.234589 # C
248 1 9.311711 27.763418 53.109531 # C
249 1 12.660323 25.950937 54.984886 # C
250 1 10.181178 27.116215 54.977882 # C
251 1 11.148196 26.533110 56.830284 # C
252 1 28.494457 8.444055 51.323750 # C
253 1 27.516171 10.928720 51.327953 # C
254 1 27.774788 9.240682 53.172501 # C
255 1 26.326958 13.312913 51.326035 # C
256 1 24.945246 15.585039 51.319328 # C
257 1 25.434420 14.101503 53.172165 # C
258 1 27.129667 10.127872 55.014111 # C
259 1 25.969152 12.609609 55.014725 # C
260 1 26.548786 11.102162 56.843147 # C
261 1 27.934301 22.582748 36.709351 # C
262 1 26.235624 24.422569 36.684200 # C
263 1 26.323900 22.715292 38.479855 # C
264 1 24.467453 26.204777 36.669937 # C
265 1 22.632217 27.921591 36.672279 # C
266 1 22.778931 26.291348 38.447876 # C
267 1 24.742619 22.895517 40.263668 # C
268 1 22.963470 24.691801 40.245506 # C
269 1 23.186682 23.121552 42.063015 # C
270 1 33.109722 6.735682 42.470062 # C
271 1 31.728018 6.728985 44.742180 # C
272 1 32.620556 4.882844 43.953606 # C
273 1 30.538807 6.727075 47.126362 # C
274 1 29.560518 6.731293 49.611008 # C
275 1 30.280191 4.882520 48.814396 # C
276 1 32.085827 3.040275 45.445503 # C
277 1 30.925314 3.040894 47.927219 # C
278 1 31.506199 1.211839 46.952942 # C
279 1 49.518719 6.820423 29.566439 # C
280 1 47.041618 6.805685 30.552534 # C
281 1 48.743217 4.945467 30.291586 # C
282 1 44.666847 6.795391 31.748055 # C
283 1 42.405205 6.786578 33.135296 # C
284 1 43.896217 4.925929 32.641972 # C
285 1 47.873741 3.077108 30.938807 # C
286 1 45.394592 3.070104 32.104111 # C
287 1 46.906712 1.224696 31.521931 # C
288 1 35.422722 21.382730 30.133389 # C
289 1 33.587498 21.385063 31.850206 # C
290 1 35.276012 19.607130 31.763639 # C
291 1 31.819338 21.370790 33.632416 # C
292 1 30.120668 21.345636 35.472237 # C
293 1 31.731064 19.575142 35.339703 # C
294 1 35.091480 17.809498 33.363197 # C
295 1 33.312340 17.791332 35.159485 # C
296 1 34.868271 15.991991 34.933460 # C
297 1 28.142986 15.536671 43.963806 # C
298 1 26.704687 17.644144 43.944172 # C
299 1 26.873800 15.965255 45.785015 # C
300 1 25.136929 19.660027 43.920513 # C
301 1 23.450205 21.578192 43.897434 # C
302 1 23.756140 20.058125 45.744888 # C
303 1 25.662374 16.476961 47.617958 # C
304 1 24.106441 18.556564 47.600914 # C
305 1 24.502592 17.067734 49.460693 # C
306 1 21.652418 23.392345 43.878628 # C
307 1 19.749210 25.095522 43.866718 # C
308 1 20.135965 23.707531 45.709690 # C
309 1 17.744371 26.679291 43.863026 # C
310 1 15.639925 28.133051 43.867249 # C
311 1 16.068316 26.851946 45.695305 # C
312 1 18.633146 24.067057 47.554077 # C
313 1 16.566870 25.633389 47.544991 # C
314 1 17.139391 24.471092 49.408421 # C
315 1 23.387371 17.734871 51.309593 # C
316 1 21.667616 19.753056 51.298542 # C
317 1 22.308657 18.476845 53.159737 # C
318 1 19.798147 21.630257 51.287567 # C
319 1 17.789219 23.356356 51.277489 # C
320 1 18.518911 22.278402 53.144073 # C
321 1 21.257042 19.292665 55.005108 # C
322 1 19.329836 21.224791 55.000340 # C
323 1 20.222198 20.182022 56.839123 # C
324 1 42.414997 14.187781 29.921934 # C
325 1 40.310562 14.191993 31.375710 # C
326 1 41.986614 12.359716 31.203058 # C
327 1 38.305729 14.188296 32.959492 # C
328 1 36.402531 14.176382 34.662674 # C
329 1 37.918980 12.345320 34.347500 # C
330 1 41.488064 10.510024 32.421635 # C
331 1 39.421791 10.500936 33.987984 # C
332 1 40.915543 8.646589 33.583954 # C
333 1 34.604752 14.157574 36.476837 # C
334 1 32.918034 14.134496 38.395008 # C
335 1 34.298820 12.310120 37.996922 # C
336 1 31.350281 14.110840 40.410892 # C
337 1 29.911987 14.091216 42.518360 # C
338 1 31.181170 12.270007 42.089794 # C
339 1 33.948521 10.454099 39.498501 # C
340 1 32.392593 10.437061 41.578110 # C
341 1 33.552372 8.594321 40.987350 # C
342 1 40.265717 6.777515 34.698711 # C
343 1 38.256794 6.767438 36.424828 # C
344 1 39.536022 4.910927 35.776688 # C
345 1 36.387337 6.756464 38.302036 # C
346 1 34.667587 6.745415 40.320229 # C
347 1 35.746300 4.895266 39.578266 # C
348 1 38.725098 3.054653 36.830318 # C
349 1 36.797905 3.049885 38.762455 # C
350 1 37.832733 1.215858 37.873104 # C
351 1 1.568425 28.973497 57.432205 # C
352 1 4.368874 28.638483 57.436722 # C
353 1 3.412466 28.905977 55.569138 # C
354 1 7.113362 28.004274 57.439770 # C
355 1 9.775030 27.095999 57.441864 # C
356 1 8.779382 27.585472 55.593117 # C
357 1 5.250569 28.842991 53.706673 # C
358 1 7.882826 28.143658 53.725140 # C
359 1 7.081558 28.784779 51.847092 # C
360 1 12.331997 25.935984 57.443394 # C
361 1 14.765554 24.543505 57.444599 # C
362 1 13.771024 25.264732 55.604950 # C
363 1 17.059769 22.937201 57.445629 # C
364 1 19.200981 21.135426 57.446590 # C
365 1 18.254173 22.097040 55.613148 # C
366 1 15.196603 24.643934 53.753342 # C
367 1 17.392637 23.071661 53.760010 # C
368 1 16.616459 24.074123 51.894600 # C
369 1 8.904547 28.731256 49.992577 # C
370 1 11.349188 27.721981 50.006786 # C
371 1 10.718805 28.682261 48.145061 # C
372 1 13.692127 26.511616 50.016453 # C
373 1 15.924180 25.117710 50.025066 # C
374 1 15.313151 26.213900 48.159966 # C
375 1 12.523881 28.637806 46.306183 # C
376 1 14.779711 27.371773 46.307850 # C
377 1 14.319636 28.597925 44.477215 # C
378 1 21.176231 19.154993 57.447510 # C
379 1 22.971413 17.010590 57.448334 # C
380 1 22.127802 18.213980 55.620621 # C
381 1 24.570353 14.715631 57.448944 # C
382 1 25.955376 12.284080 57.449188 # C
383 1 25.285538 13.723613 55.625751 # C
384 1 23.098919 17.348925 53.780136 # C
385 1 24.666895 15.146196 53.785488 # C
386 1 24.101330 16.560869 51.932755 # C
387 1 27.108536 9.731946 57.448933 # C
388 1 28.011158 7.077686 57.448078 # C
389 1 27.596245 8.730253 55.624271 # C
390 1 28.641258 4.342379 57.446617 # C
391 1 28.973742 1.551179 57.444851 # C
392 1 28.907251 3.364493 55.614025 # C
393 1 28.152285 7.815606 53.784500 # C
394 1 28.845085 5.178317 53.776669 # C
395 1 28.787502 6.991700 51.935329 # C
396 1 25.144682 15.850732 50.084518 # C
397 1 26.531773 13.607116 50.093372 # C
398 1 26.238007 15.220789 48.240597 # C
399 1 27.734488 11.254432 50.096684 # C
400 1 28.734442 8.803222 50.092602 # C
401 1 28.685907 10.611617 48.250900 # C
402 1 27.388407 14.674040 46.404591 # C
403 1 29.027487 11.805488 46.249557 # C
404 1 28.602587 14.215535 44.578552 # C
405 1 16.106276 28.562613 42.659023 # C
406 1 18.188059 27.093132 42.649517 # C
407 1 17.884315 28.531818 40.851986 # C
408 1 20.174383 25.501278 42.650146 # C
409 1 22.064278 23.797462 42.660797 # C
410 1 21.804758 25.323206 40.841240 # C
411 1 19.654593 28.505440 39.055988 # C
412 1 21.589794 26.884684 39.043468 # C
413 1 21.418255 28.483406 37.270386 # C
414 1 23.854759 21.989897 42.679802 # C
415 1 25.540791 20.085434 42.704140 # C
416 1 25.366896 21.727076 40.877407 # C
417 1 27.115116 18.090202 42.729645 # C
418 1 29.027487 15.409209 42.645817 # C
419 1 28.537720 17.800077 40.931240 # C
420 1 26.910618 21.517824 39.090736 # C
421 1 29.027487 18.992880 39.062119 # C
422 1 28.489937 21.364786 37.317562 # C
423 1 23.176765 28.465672 35.494064 # C
424 1 25.002275 26.744953 35.488312 # C
425 1 24.931892 28.452282 33.725433 # C
426 1 26.768023 24.966862 35.500755 # C
427 1 29.027485 22.553528 35.501457 # C
428 1 28.457493 24.909994 33.742142 # C
429 1 26.685715 28.443344 31.962488 # C
430 1 29.027485 26.090714 31.964266 # C
431 1 28.440641 28.439039 30.202784 # C
432 1 29.081234 0.610132 56.503815 # C
433 1 29.413719 0.608366 53.712650 # C
434 1 29.147724 2.440982 54.690529 # C
435 1 30.043825 0.606904 50.977375 # C
436 1 30.946449 0.606049 48.323147 # C
437 1 30.458738 2.430730 49.324825 # C
438 1 29.209890 4.278359 52.876724 # C
439 1 29.902695 4.270518 50.239460 # C
440 1 29.267473 6.119714 51.063354 # C
441 1 32.099606 0.605791 45.771034 # C
442 1 33.484619 0.606035 43.339500 # C
443 1 32.769440 2.429242 44.331505 # C
444 1 35.083546 0.606645 41.044548 # C
445 1 36.878708 0.607470 38.900139 # C
446 1 35.927151 2.434370 39.841148 # C
447 1 33.388077 4.269513 42.908920 # C
448 1 34.956039 4.274864 40.706196 # C
449 1 33.953636 6.122256 41.494236 # C
450 1 29.320534 7.962445 49.251839 # C
451 1 30.320486 7.958349 46.800644 # C
452 1 29.369068 9.804147 47.443439 # C
453 1 31.523199 7.961650 44.447971 # C
454 1 32.910286 7.970498 42.204357 # C
455 1 31.816963 9.814427 42.834286 # C
456 1 29.027487 12.416597 45.638447 # C
457 1 30.666567 11.650438 43.381016 # C
458 1 29.452387 13.476478 43.839504 # C
459 1 38.853943 0.608388 36.919701 # C
460 1 40.995144 0.609347 35.117905 # C
461 1 39.800751 2.441840 35.958065 # C
462 1 43.289349 0.610380 33.511578 # C
463 1 45.722904 0.611583 32.119072 # C
464 1 44.283890 2.450038 32.790329 # C
465 1 40.662289 4.294985 34.983421 # C
466 1 42.858318 4.301653 33.411129 # C
467 1 41.438473 6.160404 33.980938 # C
468 1 48.279877 0.613113 30.959030 # C
469 1 50.941559 0.615209 30.050732 # C
470 1 49.275539 2.461871 30.469542 # C
471 1 53.686066 0.618257 29.416504 # C
472 1 50.172108 4.329857 29.911341 # C
473 1 42.130749 8.029941 32.937328 # C
474 1 44.362801 8.038558 31.543406 # C
475 1 42.741779 9.895051 31.841120 # C
476 1 46.705738 8.048226 30.333019 # C
477 1 43.275215 11.747174 30.683228 # C
478 1 29.027487 16.015945 42.039074 # C
479 1 30.939854 15.325366 39.964821 # C
480 1 29.517254 17.123770 40.254932 # C
481 1 32.514172 15.350865 37.969589 # C
482 1 34.200195 15.375203 36.065125 # C
483 1 32.688065 17.177593 36.327930 # C
484 1 29.027487 19.594357 38.460640 # C
485 1 31.144348 18.964256 36.537170 # C
486 1 29.565037 20.737427 36.690205 # C
487 1 35.990673 15.394213 34.257549 # C
488 1 37.880558 15.404869 32.553726 # C
489 1 36.250187 17.213770 32.731792 # C
490 1 39.866875 15.405503 30.961863 # C
491 1 36.465145 19.011545 31.170303 # C
492 1 29.027485 23.149305 34.905678 # C
493 1 31.286942 22.554234 33.088120 # C
494 1 29.597479 24.312838 33.144985 # C
495 1 33.052677 22.566687 31.310026 # C
496 1 29.027485 26.681120 31.373859 # C
497 1 -21.363489 -21.309343 48.193233 # C
498 1 -21.363489 21.309343 -48.193233 # C
499 1 -21.363489 21.309343 48.193233 # C
500 1 -21.309343 -48.193233 -21.363489 # C
501 1 -21.309343 -48.193233 21.363489 # C
502 1 -21.309343 48.193233 -21.363489 # C
503 1 -21.309343 48.193233 21.363489 # C
504 1 -48.193233 -21.363489 -21.309343 # C
505 1 -48.193233 -21.363489 21.309343 # C
506 1 -48.193233 21.363489 -21.309343 # C
507 1 -48.193233 21.363489 21.309343 # C
508 1 48.193233 -21.363489 -21.309343 # C
509 1 48.193233 -21.363489 21.309343 # C
510 1 48.193233 21.363489 -21.309343 # C
511 1 48.193233 21.363489 21.309343 # C
512 1 21.309343 -48.193233 -21.363489 # C
513 1 21.309343 -48.193233 21.363489 # C
514 1 21.309343 48.193233 -21.363489 # C
515 1 21.309343 48.193233 21.363489 # C
516 1 21.363489 -21.309343 -48.193233 # C
517 1 21.363489 -21.309343 48.193233 # C
518 1 21.363489 21.309343 -48.193233 # C
519 1 -21.363489 -21.309343 -48.193233 # C
520 1 -36.691460 -9.861778 36.745720 # C
521 1 -36.691460 9.861778 -36.745720 # C
522 1 -36.691460 9.861778 36.745720 # C
523 1 -9.861778 -36.745720 -36.691460 # C
524 1 -9.861778 -36.745720 36.691460 # C
525 1 -9.861778 36.745720 -36.691460 # C
526 1 -9.861778 36.745720 36.691460 # C
527 1 -36.745720 -36.691460 -9.861778 # C
528 1 -36.745720 -36.691460 9.861778 # C
529 1 -36.745720 36.691460 -9.861778 # C
530 1 -36.745720 36.691460 9.861778 # C
531 1 36.745720 -36.691460 -9.861778 # C
532 1 36.745720 -36.691460 9.861778 # C
533 1 36.745720 36.691460 -9.861778 # C
534 1 36.745720 36.691460 9.861778 # C
535 1 9.861778 -36.745720 -36.691460 # C
536 1 9.861778 -36.745720 36.691460 # C
537 1 9.861778 36.745720 -36.691460 # C
538 1 9.861778 36.745720 36.691460 # C
539 1 36.691460 -9.861778 -36.745720 # C
540 1 36.691460 -9.861778 36.745720 # C
541 1 36.691460 9.861778 -36.745720 # C
542 1 -36.691460 -9.861778 -36.745720 # C
543 1 -11.790244 -26.694628 53.120602 # C
544 1 -11.790244 26.694628 -53.120602 # C
545 1 -11.790244 26.694628 53.120602 # C
546 1 -26.694628 -53.120602 -11.790244 # C
547 1 -26.694628 -53.120602 11.790244 # C
548 1 -26.694628 53.120602 -11.790244 # C
549 1 -26.694628 53.120602 11.790244 # C
550 1 -53.120602 -11.790244 -26.694628 # C
551 1 -53.120602 -11.790244 26.694628 # C
552 1 -53.120602 11.790244 -26.694628 # C
553 1 -53.120602 11.790244 26.694628 # C
554 1 53.120602 -11.790244 -26.694628 # C
555 1 53.120602 -11.790244 26.694628 # C
556 1 53.120602 11.790244 -26.694628 # C
557 1 53.120602 11.790244 26.694628 # C
558 1 26.694628 -53.120602 -11.790244 # C
559 1 26.694628 -53.120602 11.790244 # C
560 1 26.694628 53.120602 -11.790244 # C
561 1 26.694628 53.120602 11.790244 # C
562 1 11.790244 -26.694628 -53.120602 # C
563 1 11.790244 -26.694628 53.120602 # C
564 1 11.790244 26.694628 -53.120602 # C
565 1 -11.790244 -26.694628 -53.120602 # C
566 1 -26.711357 -11.725629 53.174377 # C
567 1 -26.711357 11.725629 -53.174377 # C
568 1 -26.711357 11.725629 53.174377 # C
569 1 -11.725629 -53.174377 -26.711357 # C
570 1 -11.725629 -53.174377 26.711357 # C
571 1 -11.725629 53.174377 -26.711357 # C
572 1 -11.725629 53.174377 26.711357 # C
573 1 -53.174377 -26.711357 -11.725629 # C
574 1 -53.174377 -26.711357 11.725629 # C
575 1 -53.174377 26.711357 -11.725629 # C
576 1 -53.174377 26.711357 11.725629 # C
577 1 53.174377 -26.711357 -11.725629 # C
578 1 53.174377 -26.711357 11.725629 # C
579 1 53.174377 26.711357 -11.725629 # C
580 1 53.174377 26.711357 11.725629 # C
581 1 11.725629 -53.174377 -26.711357 # C
582 1 11.725629 -53.174377 26.711357 # C
583 1 11.725629 53.174377 -26.711357 # C
584 1 11.725629 53.174377 26.711357 # C
585 1 26.711357 -11.725629 -53.174377 # C
586 1 26.711357 -11.725629 53.174377 # C
587 1 26.711357 11.725629 -53.174377 # C
588 1 -26.711357 -11.725629 -53.174377 # C
589 1 -24.590694 -24.540091 38.457981 # C
590 1 -24.590694 24.540091 -38.457981 # C
591 1 -24.590694 24.540091 38.457981 # C
592 1 -24.540091 -38.457981 -24.590694 # C
593 1 -24.540091 -38.457981 24.590694 # C
594 1 -24.540091 38.457981 -24.590694 # C
595 1 -24.540091 38.457981 24.590694 # C
596 1 -38.457981 -24.590694 -24.540091 # C
597 1 -38.457981 -24.590694 24.540091 # C
598 1 -38.457981 24.590694 -24.540091 # C
599 1 -38.457981 24.590694 24.540091 # C
600 1 38.457981 -24.590694 -24.540091 # C
601 1 38.457981 -24.590694 24.540091 # C
602 1 38.457981 24.590694 -24.540091 # C
603 1 38.457981 24.590694 24.540091 # C
604 1 24.540091 -38.457981 -24.590694 # C
605 1 24.540091 -38.457981 24.590694 # C
606 1 24.540091 38.457981 -24.590694 # C
607 1 24.540091 38.457981 24.590694 # C
608 1 24.590694 -24.540091 -38.457981 # C
609 1 24.590694 -24.540091 38.457981 # C
610 1 24.590694 24.540091 -38.457981 # C
611 1 -24.590694 -24.540091 -38.457981 # C
612 1 -31.343620 -4.880636 46.329468 # C
613 1 -31.343620 4.880636 -46.329468 # C
614 1 -31.343620 4.880636 46.329468 # C
615 1 -4.880636 -46.329468 -31.343620 # C
616 1 -4.880636 -46.329468 31.343620 # C
617 1 -4.880636 46.329468 -31.343620 # C
618 1 -4.880636 46.329468 31.343620 # C
619 1 -46.329468 -31.343620 -4.880636 # C
620 1 -46.329468 -31.343620 4.880636 # C
621 1 -46.329468 31.343620 -4.880636 # C
622 1 -46.329468 31.343620 4.880636 # C
623 1 46.329468 -31.343620 -4.880636 # C
624 1 46.329468 -31.343620 4.880636 # C
625 1 46.329468 31.343620 -4.880636 # C
626 1 46.329468 31.343620 4.880636 # C
627 1 4.880636 -46.329468 -31.343620 # C
628 1 4.880636 -46.329468 31.343620 # C
629 1 4.880636 46.329468 -31.343620 # C
630 1 4.880636 46.329468 31.343620 # C
631 1 31.343620 -4.880636 -46.329468 # C
632 1 31.343620 -4.880636 46.329468 # C
633 1 31.343620 4.880636 -46.329468 # C
634 1 -31.343620 -4.880636 -46.329468 # C
635 1 -46.264679 -4.934398 31.360399 # C
636 1 -46.264679 4.934398 -31.360399 # C
637 1 -46.264679 4.934398 31.360399 # C
638 1 -4.934398 -31.360399 -46.264679 # C
639 1 -4.934398 -31.360399 46.264679 # C
640 1 -4.934398 31.360399 -46.264679 # C
641 1 -4.934398 31.360399 46.264679 # C
642 1 -31.360399 -46.264679 -4.934398 # C
643 1 -31.360399 -46.264679 4.934398 # C
644 1 -31.360399 46.264679 -4.934398 # C
645 1 -31.360399 46.264679 4.934398 # C
646 1 31.360399 -46.264679 -4.934398 # C
647 1 31.360399 -46.264679 4.934398 # C
648 1 31.360399 46.264679 -4.934398 # C
649 1 31.360399 46.264679 4.934398 # C
650 1 4.934398 -31.360399 -46.264679 # C
651 1 4.934398 -31.360399 46.264679 # C
652 1 4.934398 31.360399 -46.264679 # C
653 1 4.934398 31.360399 46.264679 # C
654 1 46.264679 -4.934398 -31.360399 # C
655 1 46.264679 -4.934398 31.360399 # C
656 1 46.264679 4.934398 -31.360399 # C
657 1 -46.264679 -4.934398 -31.360399 # C
658 1 -33.464260 -19.597019 33.514900 # C
659 1 -33.464260 19.597019 -33.514900 # C
660 1 -33.464260 19.597019 33.514900 # C
661 1 -19.597019 -33.514900 -33.464260 # C
662 1 -19.597019 -33.514900 33.464260 # C
663 1 -19.597019 33.514900 -33.464260 # C
664 1 -19.597019 33.514900 33.464260 # C
665 1 -33.514900 -33.464260 -19.597019 # C
666 1 -33.514900 -33.464260 19.597019 # C
667 1 -33.514900 33.464260 -19.597019 # C
668 1 -33.514900 33.464260 19.597019 # C
669 1 33.514900 -33.464260 -19.597019 # C
670 1 33.514900 -33.464260 19.597019 # C
671 1 33.514900 33.464260 -19.597019 # C
672 1 33.514900 33.464260 19.597019 # C
673 1 19.597019 -33.514900 -33.464260 # C
674 1 19.597019 -33.514900 33.464260 # C
675 1 19.597019 33.514900 -33.464260 # C
676 1 19.597019 33.514900 33.464260 # C
677 1 33.464260 -19.597019 -33.514900 # C
678 1 33.464260 -19.597019 33.514900 # C
679 1 33.464260 19.597019 -33.514900 # C
680 1 -33.464260 -19.597019 -33.514900 # C
681 1 -25.382544 -18.063789 45.765945 # C
682 1 -25.382544 18.063789 -45.765945 # C
683 1 -25.382544 18.063789 45.765945 # C
684 1 -18.063789 -45.765945 -25.382544 # C
685 1 -18.063789 -45.765945 25.382544 # C
686 1 -18.063789 45.765945 -25.382544 # C
687 1 -18.063789 45.765945 25.382544 # C
688 1 -45.765945 -25.382544 -18.063789 # C
689 1 -45.765945 -25.382544 18.063789 # C
690 1 -45.765945 25.382544 -18.063789 # C
691 1 -45.765945 25.382544 18.063789 # C
692 1 45.765945 -25.382544 -18.063789 # C
693 1 45.765945 -25.382544 18.063789 # C
694 1 45.765945 25.382544 -18.063789 # C
695 1 45.765945 25.382544 18.063789 # C
696 1 18.063789 -45.765945 -25.382544 # C
697 1 18.063789 -45.765945 25.382544 # C
698 1 18.063789 45.765945 -25.382544 # C
699 1 18.063789 45.765945 25.382544 # C
700 1 25.382544 -18.063789 -45.765945 # C
701 1 25.382544 -18.063789 45.765945 # C
702 1 25.382544 18.063789 -45.765945 # C
703 1 -25.382544 -18.063789 -45.765945 # C
704 1 -18.155745 -25.347563 45.699654 # C
705 1 -18.155745 25.347563 -45.699654 # C
706 1 -18.155745 25.347563 45.699654 # C
707 1 -25.347563 -45.699654 -18.155745 # C
708 1 -25.347563 -45.699654 18.155745 # C
709 1 -25.347563 45.699654 -18.155745 # C
710 1 -25.347563 45.699654 18.155745 # C
711 1 -45.699654 -18.155745 -25.347563 # C
712 1 -45.699654 -18.155745 25.347563 # C
713 1 -45.699654 18.155745 -25.347563 # C
714 1 -45.699654 18.155745 25.347563 # C
715 1 45.699654 -18.155745 -25.347563 # C
716 1 45.699654 -18.155745 25.347563 # C
717 1 45.699654 18.155745 -25.347563 # C
718 1 45.699654 18.155745 25.347563 # C
719 1 25.347563 -45.699654 -18.155745 # C
720 1 25.347563 -45.699654 18.155745 # C
721 1 25.347563 45.699654 -18.155745 # C
722 1 25.347563 45.699654 18.155745 # C
723 1 18.155745 -25.347563 -45.699654 # C
724 1 18.155745 -25.347563 45.699654 # C
725 1 18.155745 25.347563 -45.699654 # C
726 1 -18.155745 -25.347563 -45.699654 # C
727 1 -20.490337 -20.454700 53.151878 # C
728 1 -20.490337 20.454700 -53.151878 # C
729 1 -20.490337 20.454700 53.151878 # C
730 1 -20.454700 -53.151878 -20.490337 # C
731 1 -20.454700 -53.151878 20.490337 # C
732 1 -20.454700 53.151878 -20.490337 # C
733 1 -20.454700 53.151878 20.490337 # C
734 1 -53.151878 -20.490337 -20.454700 # C
735 1 -53.151878 -20.490337 20.454700 # C
736 1 -53.151878 20.490337 -20.454700 # C
737 1 -53.151878 20.490337 20.454700 # C
738 1 53.151878 -20.490337 -20.454700 # C
739 1 53.151878 -20.490337 20.454700 # C