LAMMPS data file. CGCMM style. atom_style atomic generated by VMD/TopoTools v1.6 on Wed Oct 05 14:46:23 EDT 2016
 12288 atoms
 0 bonds
 0 angles
 0 dihedrals
 0 impropers
 1 atom types
 0 bond types
 0 angle types
 0 dihedral types
 0 improper types
 -58.19148 58.19148  xlo xhi
 -58.19148 58.19148  ylo yhi
 -58.19148 58.19148  zlo zhi

# Pair Coeffs
#
# 1  C

 Masses

 1 12.010700 # C

 Atoms

1 1 21.375498 21.321320 48.220322 # C
2 1 36.712082 9.867321 36.766373 # C
3 1 11.796872 26.709633 53.150459 # C
4 1 26.726372 11.732220 53.204266 # C
5 1 24.604517 24.553885 38.479595 # C
6 1 31.361238 4.883380 46.355511 # C
7 1 46.290684 4.937172 31.378025 # C
8 1 33.483070 19.608034 33.533737 # C
9 1 25.396812 18.073942 45.791668 # C
10 1 18.165949 25.361811 45.725342 # C
11 1 20.501856 20.466198 53.181755 # C
12 1 39.921619 12.362307 32.725842 # C
13 1 32.690784 12.295977 40.013741 # C
14 1 37.585720 4.905878 37.621536 # C
15 1 6.135885 28.397856 55.614738 # C
16 1 16.091904 23.791443 55.640476 # C
17 1 13.075482 27.553411 48.180473 # C
18 1 23.817280 16.047604 55.654999 # C
19 1 28.403889 6.087924 55.651340 # C
20 1 27.567881 12.973022 48.276958 # C
21 1 19.899904 26.995434 40.862682 # C
22 1 27.019894 19.812962 40.927704 # C
23 1 26.733988 26.716333 33.744518 # C
24 1 29.683723 2.436296 51.999760 # C
25 1 34.270317 2.432624 42.040157 # C
26 1 30.519726 9.810708 45.114677 # C
27 1 41.995644 2.447143 34.296272 # C
28 1 51.951683 2.472881 29.689770 # C
29 1 45.012077 9.907179 30.534222 # C
30 1 31.067707 17.159931 38.274681 # C
31 1 38.187660 17.224968 31.092188 # C
32 1 31.353605 24.343103 31.371277 # C
33 1 19.190500 22.843754 49.446972 # C
34 1 22.883284 19.130877 49.474285 # C
35 1 22.017069 21.954033 45.750999 # C
36 1 35.204304 8.613359 38.956837 # C
37 1 38.897072 8.640671 35.243938 # C
38 1 36.070515 12.336642 36.133640 # C
39 1 14.408524 25.564959 51.915298 # C
40 1 9.626654 27.939508 51.894253 # C
41 1 11.337882 26.554741 55.631096 # C
42 1 27.950260 9.543695 51.971687 # C
43 1 25.587299 14.343168 51.969322 # C
44 1 26.570494 11.288728 55.657356 # C
45 1 26.846991 23.252310 37.310120 # C
46 1 23.306583 26.821276 37.281105 # C
47 1 23.645102 23.582920 40.877796 # C
48 1 32.500305 6.118323 43.744568 # C
49 1 30.137348 6.115975 48.544010 # C
50 1 31.517120 2.430272 46.799007 # C
51 1 48.460907 6.193386 30.148125 # C
52 1 43.679035 6.172335 32.522717 # C
53 1 46.749664 2.456523 31.532927 # C
54 1 34.780994 20.806534 31.266340 # C
55 1 31.240606 20.777502 34.835312 # C
56 1 34.442486 17.209841 34.504715 # C
57 1 27.258101 16.390755 44.588753 # C
58 1 24.129313 20.443947 44.544388 # C
59 1 24.773373 17.377941 48.253300 # C
60 1 20.525200 24.079641 44.507755 # C
61 1 16.494984 27.238844 44.497601 # C
62 1 17.457672 24.739965 48.195068 # C
63 1 22.469887 18.668043 51.952503 # C
64 1 18.714609 22.437403 51.932705 # C
65 1 20.284624 20.249006 55.648232 # C
66 1 41.592579 13.590053 30.848785 # C
67 1 37.562374 13.579889 34.008011 # C
68 1 40.629894 9.892578 33.347706 # C
69 1 33.958279 13.543255 37.643723 # C
70 1 30.829500 13.498897 41.696918 # C
71 1 33.314224 9.834349 40.709766 # C
72 1 39.372959 6.154928 35.650311 # C
73 1 35.617699 6.135135 39.419693 # C
74 1 37.802944 2.439388 37.838745 # C
75 1 3.115059 28.868208 56.845886 # C
76 1 8.561361 27.587465 56.858601 # C
77 1 6.741493 28.616358 53.123055 # C
78 1 13.633674 25.270689 56.864964 # C
79 1 18.186565 22.075686 56.869194 # C
80 1 16.414284 23.949278 53.166447 # C
81 1 10.331265 28.401985 49.408310 # C
82 1 14.987355 25.967783 49.427380 # C
83 1 13.884624 28.224100 45.720798 # C
84 1 22.110441 18.142107 56.872818 # C
85 1 25.292749 13.585940 56.875111 # C
86 1 23.974953 16.364826 53.196762 # C
87 1 27.597397 8.519337 56.873985 # C
88 1 28.869722 3.084789 56.868443 # C
89 1 28.621180 6.664647 53.195957 # C
90 1 25.991779 14.903379 49.500462 # C
91 1 28.408821 10.228958 49.507889 # C
92 1 28.232857 13.776935 45.823769 # C
93 1 17.405533 28.082722 42.074505 # C
94 1 21.362703 24.890970 42.071980 # C
95 1 20.902134 27.977076 38.475471 # C
96 1 24.938183 21.281528 42.109016 # C
97 1 28.093901 17.310940 42.160191 # C
98 1 27.989985 20.835524 38.529900 # C
99 1 24.386562 27.906141 34.919937 # C
100 1 27.917540 24.354229 34.940975 # C
101 1 27.875750 27.870552 31.394197 # C
102 1 29.217884 1.219183 55.002857 # C
103 1 30.490219 1.213634 49.568375 # C
104 1 29.466429 4.891707 51.423038 # C
105 1 32.794861 1.212506 44.501816 # C
106 1 35.977139 1.214797 39.945660 # C
107 1 34.112644 4.890875 41.722919 # C
108 1 29.678785 8.579786 47.858738 # C
109 1 32.095825 8.587190 43.184338 # C
110 1 29.854750 12.263896 44.310745 # C
111 1 39.900986 1.218420 36.012058 # C
112 1 44.453861 1.222650 32.817009 # C
113 1 41.673275 4.921183 34.138424 # C
114 1 49.526188 1.229013 30.500181 # C
115 1 54.972523 1.241728 29.219406 # C
116 1 51.346077 4.964579 29.471260 # C
117 1 43.100208 8.660263 32.119877 # C
118 1 47.756294 8.679339 29.685637 # C
119 1 44.202930 12.366860 29.863520 # C
120 1 29.993704 15.927453 40.776714 # C
121 1 33.149410 15.978621 36.806118 # C
122 1 30.097618 19.557724 37.252102 # C
123 1 36.724873 16.015661 33.196667 # C
124 1 40.682022 16.013153 30.004896 # C
125 1 37.185432 19.612177 30.110537 # C
126 1 30.170061 23.146643 33.733383 # C
127 1 33.701019 23.167696 30.181467 # C
128 1 30.211849 26.693417 30.217056 # C
129 1 22.422602 20.531359 47.609875 # C
130 1 20.594519 22.371939 47.593712 # C
131 1 21.104671 21.055882 49.459919 # C
132 1 37.493057 10.493929 35.715744 # C
133 1 35.664986 10.477768 37.556335 # C
134 1 36.982906 8.627720 37.031822 # C
135 1 10.434689 27.212578 53.767570 # C
136 1 12.878640 26.039293 53.776367 # C
137 1 12.071972 26.854504 51.906151 # C
138 1 26.057970 12.821683 53.818848 # C
139 1 27.226574 10.372070 53.818745 # C
140 1 26.871572 11.997194 51.973030 # C
141 1 23.458300 25.188671 39.069489 # C
142 1 25.234020 23.396360 39.086739 # C
143 1 25.112576 25.069571 37.289040 # C
144 1 30.861038 4.268903 47.715652 # C
145 1 32.029636 4.268791 45.266056 # C
146 1 31.216036 6.114622 46.090530 # C
147 1 45.208912 4.311259 32.048378 # C
148 1 47.652866 4.320058 30.875072 # C
149 1 46.015587 6.181486 31.233150 # C
150 1 32.853573 19.000889 34.691265 # C
151 1 34.629284 19.018147 32.898952 # C
152 1 32.975014 20.798590 33.018047 # C
153 1 24.430483 18.904104 46.395653 # C
154 1 25.989746 16.845114 46.415108 # C
155 1 25.757566 18.466366 44.567432 # C
156 1 16.941196 25.960934 46.337429 # C
157 1 18.986881 24.389296 46.345364 # C
158 1 18.561460 25.723358 44.498981 # C
159 1 19.459904 21.335009 53.796970 # C
160 1 21.367018 19.422415 53.803829 # C
161 1 20.665941 20.627129 51.942413 # C
162 1 39.100689 11.742280 33.698368 # C
163 1 41.146366 11.750220 32.126717 # C
164 1 39.526108 13.588667 32.364285 # C
165 1 32.097855 11.672542 41.242577 # C
166 1 33.657108 11.691990 39.183582 # C
167 1 32.330029 13.520213 39.621307 # C
168 1 36.720562 4.283801 38.665329 # C
169 1 38.627666 4.290658 36.752728 # C
170 1 37.421635 6.145221 37.460598 # C
171 1 7.602416 28.062551 54.999104 # C
172 1 4.932753 28.737625 54.984779 # C
173 1 5.873786 28.368830 56.853455 # C
174 1 17.256729 23.001453 55.026409 # C
175 1 15.028448 24.583130 55.021404 # C
176 1 15.982399 23.773859 56.867203 # C
177 1 14.397445 27.061890 47.565636 # C
178 1 12.112352 28.308481 47.560123 # C
179 1 12.712262 27.278891 49.419056 # C
180 1 24.606014 14.981595 55.043892 # C
181 1 23.028975 17.214567 55.040436 # C
182 1 23.802427 15.935298 56.874252 # C
183 1 28.740993 4.876716 55.035423 # C
184 1 28.071121 7.547789 55.041592 # C
185 1 28.374027 5.837623 56.871670 # C
186 1 28.316223 12.004946 47.664219 # C
187 1 27.080599 14.296295 47.658020 # C
188 1 27.294945 12.617458 49.507717 # C
189 1 21.109131 26.414101 40.261482 # C
190 1 19.156212 28.025517 40.269081 # C
191 1 19.430811 26.543415 42.067532 # C
192 1 28.037794 19.074154 40.340256 # C
193 1 26.445696 21.029121 40.312054 # C
194 1 26.572315 19.338322 42.135162 # C
195 1 27.892611 26.112347 33.162724 # C
196 1 26.129267 27.883802 33.154591 # C
197 1 26.180395 26.154650 34.922638 # C
198 1 30.016491 3.046050 50.539909 # C
199 1 29.346615 3.052222 53.210957 # C
200 1 29.713585 1.215953 52.250057 # C
201 1 35.058617 3.047190 40.873192 # C
202 1 33.481586 3.043739 43.106159 # C
203 1 34.285168 1.213361 42.152466 # C
204 1 31.007006 10.429641 43.791405 # C
205 1 29.771383 10.423456 46.082745 # C
206 1 30.792662 8.579946 45.470249 # C
207 1 43.059101 3.066218 33.504574 # C
208 1 40.830826 3.061212 35.086269 # C
209 1 42.105141 1.220413 34.313866 # C
210 1 53.154823 3.102845 29.349991 # C
211 1 50.485146 3.088519 30.025082 # C
212 1 52.213779 1.234159 29.718798 # C
213 1 45.975204 10.527532 29.779139 # C
214 1 43.690117 10.522014 31.025749 # C
215 1 45.375298 8.668592 30.808750 # C
216 1 31.641903 17.775578 37.058514 # C
217 1 30.049810 17.747377 39.013485 # C
218 1 31.515284 15.952474 38.749329 # C
219 1 38.931351 17.818575 30.062099 # C
220 1 36.978443 17.826162 31.673523 # C
221 1 38.656757 16.020117 31.544212 # C
222 1 31.958323 24.933035 30.203808 # C
223 1 30.194990 24.924891 31.975264 # C
224 1 31.907198 23.164984 31.932962 # C
225 1 18.047832 23.568609 50.062794 # C
226 1 20.036552 21.849642 50.074177 # C
227 1 19.477642 23.100613 48.206108 # C
228 1 21.891249 19.985685 50.087101 # C
229 1 23.602457 17.986147 50.100491 # C
230 1 23.143808 19.411112 48.236656 # C
231 1 20.920898 22.683474 46.358433 # C
232 1 22.737791 20.852535 46.375835 # C
233 1 22.382841 22.317268 44.523491 # C
234 1 34.485134 7.987152 40.101578 # C
235 1 36.196335 8.000540 38.102028 # C
236 1 34.943779 9.850986 38.676590 # C
237 1 38.051022 8.013463 36.238064 # C
238 1 40.039734 8.024845 34.519081 # C
239 1 38.609932 9.881536 34.987068 # C
240 1 35.349792 11.711807 37.235146 # C
241 1 37.166679 11.729211 35.404202 # C
242 1 35.704742 13.564150 35.770393 # C
243 1 15.658520 24.933762 51.297245 # C
244 1 13.395603 26.321760 51.288429 # C
245 1 14.166662 25.427362 53.158932 # C
246 1 11.019498 27.517933 51.278130 # C
247 1 8.541011 28.504562 51.263386 # C
248 1 9.316945 27.779024 53.139385 # C
249 1 12.667439 25.965525 55.015793 # C
250 1 10.186901 27.131456 55.008785 # C
251 1 11.154462 26.548023 56.862228 # C
252 1 28.510473 8.448802 51.352596 # C
253 1 27.531635 10.934863 51.356804 # C
254 1 27.790400 9.245876 53.202389 # C
255 1 26.341755 13.320396 51.354885 # C
256 1 24.959267 15.593799 51.348175 # C
257 1 25.448715 14.109429 53.202049 # C
258 1 27.144917 10.133565 55.045033 # C
259 1 25.983749 12.616697 55.045647 # C
260 1 26.563707 11.108403 56.875099 # C
261 1 27.950003 22.595444 36.729984 # C
262 1 26.250372 24.436296 36.704823 # C
263 1 26.338697 22.728060 38.501480 # C
264 1 24.481207 26.219505 36.690548 # C
265 1 22.644939 27.937284 36.692894 # C
266 1 22.791735 26.306126 38.469486 # C
267 1 24.756527 22.908386 40.286301 # C
268 1 22.976377 24.705681 40.268127 # C
269 1 23.199715 23.134548 42.086658 # C
270 1 33.128334 6.739468 42.493935 # C
271 1 31.745852 6.732768 44.767330 # C
272 1 32.638889 4.885589 43.978313 # C
273 1 30.555973 6.730856 47.152851 # C
274 1 29.577133 6.735076 49.638893 # C
275 1 30.297211 4.885265 48.841835 # C
276 1 32.103863 3.041983 45.471046 # C
277 1 30.942698 3.042603 47.954159 # C
278 1 31.523907 1.212521 46.979332 # C
279 1 49.546555 6.824257 29.583057 # C
280 1 47.068062 6.809510 30.569708 # C
281 1 48.770615 4.948247 30.308613 # C
282 1 44.691956 6.799210 31.765900 # C
283 1 42.429039 6.790393 33.153919 # C
284 1 43.920891 4.928697 32.660320 # C
285 1 47.900650 3.078838 30.956198 # C
286 1 45.420109 3.071829 32.122154 # C
287 1 46.933075 1.225385 31.539648 # C
288 1 35.442635 21.394751 30.150326 # C
289 1 33.606380 21.397083 31.868111 # C
290 1 35.295841 19.618153 31.781492 # C
291 1 31.837221 21.382801 33.651321 # C
292 1 30.137600 21.357635 35.492176 # C
293 1 31.748899 19.586143 35.359566 # C
294 1 35.111202 17.819510 33.381950 # C
295 1 33.331062 17.801332 35.179249 # C
296 1 34.887871 16.000980 34.953094 # C
297 1 28.158806 15.545404 43.988518 # C
298 1 26.719698 17.654060 43.968876 # C
299 1 26.888905 15.974229 45.810749 # C
300 1 25.151058 19.671076 43.945198 # C
301 1 23.463387 21.590321 43.922108 # C
302 1 23.769491 20.069399 45.770603 # C
303 1 25.676798 16.486221 47.644722 # C
304 1 24.119991 18.566996 47.627670 # C
305 1 24.516365 17.077328 49.488495 # C
306 1 21.664589 23.405495 43.903294 # C
307 1 19.760311 25.109629 43.891376 # C
308 1 20.147284 23.720858 45.735386 # C
309 1 17.754345 26.694286 43.887684 # C
310 1 15.648717 28.148865 43.891907 # C
311 1 16.077349 26.867039 45.720989 # C
312 1 18.643620 24.080585 47.580807 # C
313 1 16.576181 25.647799 47.571716 # C
314 1 17.149025 24.484848 49.436192 # C
315 1 23.400517 17.744839 51.338432 # C
316 1 21.679794 19.764158 51.327377 # C
317 1 22.321196 18.487230 53.189617 # C
318 1 19.809277 21.642414 51.316395 # C
319 1 17.799217 23.369484 51.306313 # C
320 1 18.529322 22.290924 53.173943 # C
321 1 21.268990 19.303511 55.036026 # C
322 1 19.340700 21.236719 55.031254 # C
323 1 20.233566 20.193367 56.871075 # C
324 1 42.438839 14.195756 29.938753 # C
325 1 40.333218 14.199970 31.393345 # C
326 1 42.010216 12.366664 31.220598 # C
327 1 38.327263 14.196271 32.978016 # C
328 1 36.422993 14.184350 34.682159 # C
329 1 37.940292 12.352259 34.366806 # C
330 1 41.511383 10.515932 32.439857 # C
331 1 39.443951 10.506839 34.007088 # C
332 1 40.938541 8.651449 33.602829 # C
333 1 34.624203 14.165531 36.497337 # C
334 1 32.936535 14.142441 38.416588 # C
335 1 34.318096 12.317039 38.018280 # C
336 1 31.367903 14.118771 40.433605 # C
337 1 29.928801 14.099137 42.542259 # C
338 1 31.198696 12.276904 42.113453 # C
339 1 33.967602 10.459976 39.520702 # C
340 1 32.410801 10.442928 41.601479 # C
341 1 33.571232 8.599152 41.010391 # C
342 1 40.288349 6.781324 34.718216 # C
343 1 38.278297 6.771242 36.445301 # C
344 1 39.558243 4.913687 35.796795 # C
345 1 36.407787 6.760262 38.323566 # C
346 1 34.687077 6.749206 40.342892 # C
347 1 35.766392 4.898017 39.600513 # C
348 1 38.746864 3.056370 36.851021 # C
349 1 36.818588 3.051599 38.784241 # C
350 1 37.854000 1.216541 37.894390 # C
351 1 1.569307 28.989784 57.464485 # C
352 1 4.371329 28.654579 57.469006 # C
353 1 3.414384 28.922226 55.600372 # C
354 1 7.117361 28.020016 57.472054 # C
355 1 9.780524 27.111229 57.474152 # C
356 1 8.784317 27.600977 55.624367 # C
357 1 5.253521 28.859201 53.736862 # C
358 1 7.887257 28.159475 53.755341 # C
359 1 7.085539 28.800959 51.876236 # C
360 1 12.338929 25.950562 57.475681 # C
361 1 14.773854 24.557301 57.476887 # C
362 1 13.778764 25.278934 55.636204 # C
363 1 17.069359 22.950092 57.477921 # C
364 1 19.211775 21.147305 57.478882 # C
365 1 18.264435 22.109463 55.644405 # C
366 1 15.205145 24.657787 53.783558 # C
367 1 17.402414 23.084629 53.790230 # C
368 1 16.625797 24.087654 51.923767 # C
369 1 8.909553 28.747406 50.020679 # C
370 1 11.355568 27.737564 50.034897 # C
371 1 10.724830 28.698381 48.172123 # C
372 1 13.699823 26.526518 50.044567 # C
373 1 15.933131 25.131828 50.053188 # C
374 1 15.321758 26.228636 48.187035 # C
375 1 12.530920 28.653902 46.332211 # C
376 1 14.788019 27.387157 46.333878 # C
377 1 14.327685 28.614000 44.502213 # C
378 1 21.188133 19.165762 57.479801 # C
379 1 22.984324 17.020151 57.480625 # C
380 1 22.140240 18.224216 55.651882 # C
381 1 24.584162 14.723902 57.481236 # C
382 1 25.969963 12.290984 57.481480 # C
383 1 25.299749 13.731327 55.657021 # C
384 1 23.111902 17.358677 53.810364 # C
385 1 24.680759 15.154710 53.815723 # C
386 1 24.114876 16.570177 51.961945 # C
387 1 27.123774 9.737416 57.481224 # C
388 1 28.026903 7.081665 57.480370 # C
389 1 27.611755 8.735160 55.655537 # C
390 1 28.657358 4.344819 57.478909 # C
391 1 28.990028 1.552051 57.477142 # C
392 1 28.923498 3.366384 55.645287 # C
393 1 28.168110 7.819999 53.814735 # C
394 1 28.861300 5.181228 53.806896 # C
395 1 28.803684 6.995630 51.964520 # C
396 1 25.158813 15.859642 50.112671 # C
397 1 26.546686 13.614764 50.121529 # C
398 1 26.252754 15.229344 48.267712 # C
399 1 27.750076 11.260758 50.124844 # C
400 1 28.750593 8.808170 50.120762 # C
401 1 28.702030 10.617581 48.278023 # C
402 1 27.403801 14.682288 46.430672 # C
403 1 28.657995 12.422865 46.438374 # C
404 1 28.618664 14.223525 44.603611 # C
405 1 16.115330 28.578667 42.683002 # C
406 1 18.198280 27.108360 42.673492 # C
407 1 17.894367 28.547857 40.874947 # C
408 1 20.185722 25.515612 42.674118 # C
409 1 22.076679 23.810839 42.684776 # C
410 1 21.817015 25.337440 40.864197 # C
411 1 19.665640 28.521461 39.077942 # C
412 1 21.601929 26.899796 39.065414 # C
413 1 21.430292 28.499416 37.291336 # C
414 1 23.868168 22.002256 42.703793 # C
415 1 25.555147 20.096724 42.728146 # C
416 1 25.381153 21.739288 40.900383 # C
417 1 27.130358 18.100370 42.753662 # C
418 1 28.583944 16.019279 42.775166 # C
419 1 28.553761 17.810083 40.954247 # C
420 1 26.925743 21.529921 39.112709 # C
421 1 28.527838 19.595919 39.141796 # C
422 1 28.505951 21.376795 37.338539 # C
423 1 23.189793 28.481670 35.514015 # C
424 1 25.016329 26.759987 35.508259 # C
425 1 24.945908 28.468273 33.744392 # C
426 1 26.783070 24.980896 35.520710 # C
427 1 28.487856 23.152761 35.544949 # C
428 1 28.473488 24.923994 33.761108 # C
429 1 26.700712 28.459332 31.980453 # C
430 1 29.043800 26.105379 31.982233 # C
431 1 28.456627 28.455025 30.219759 # C
432 1 29.097580 0.610475 56.535576 # C
433 1 29.430252 0.608708 53.742844 # C
434 1 29.164108 2.442354 54.721268 # C
435 1 30.060713 0.607245 51.006027 # C
436 1 30.963842 0.606389 48.350307 # C
437 1 30.475859 2.432096 49.352551 # C
438 1 29.226309 4.280764 52.906445 # C
439 1 29.919502 4.272919 50.267700 # C
440 1 29.283924 6.123153 51.092056 # C
441 1 32.117649 0.606131 45.796761 # C
442 1 33.503441 0.606375 43.363861 # C
443 1 32.787857 2.430607 44.356422 # C
444 1 35.103264 0.606986 41.067619 # C
445 1 36.899437 0.607811 38.922005 # C
446 1 35.947346 2.435738 39.863544 # C
447 1 33.406841 4.271913 42.933037 # C
448 1 34.975689 4.277267 40.729073 # C
449 1 33.972721 6.125697 41.517559 # C
450 1 29.337013 7.966921 49.279522 # C
451 1 30.337530 7.962822 46.826950 # C
452 1 29.385576 9.809658 47.470108 # C
453 1 31.540918 7.966125 44.472954 # C
454 1 32.928783 7.974978 42.228081 # C
455 1 31.834846 9.819943 42.858360 # C
456 1 29.429611 11.649299 45.664818 # C
457 1 30.683804 11.656987 43.405399 # C
458 1 29.468943 13.484053 43.864143 # C
459 1 38.875782 0.608730 36.940453 # C
460 1 41.018185 0.609689 35.137646 # C
461 1 39.823124 2.443212 35.978275 # C
462 1 43.313683 0.610723 33.530415 # C
463 1 45.748604 0.611927 32.137127 # C
464 1 44.308781 2.451415 32.808758 # C
465 1 40.685146 4.297399 35.003086 # C
466 1 42.882408 4.304071 33.429909 # C
467 1 41.461761 6.163866 34.000038 # C
468 1 48.307014 0.613458 30.976433 # C
469 1 50.970192 0.615555 30.067623 # C
470 1 49.303238 2.463255 30.486668 # C
471 1 53.716244 0.618604 29.433039 # C
472 1 50.200306 4.332291 29.928152 # C
473 1 42.154430 8.034454 32.955845 # C
474 1 44.387737 8.043077 31.561136 # C
475 1 42.765804 9.900613 31.859016 # C
476 1 46.731991 8.052750 30.350071 # C
477 1 43.299541 11.753777 30.700474 # C
478 1 29.503660 15.312484 42.068375 # C
479 1 30.957245 15.333980 39.987286 # C
480 1 29.533846 17.133394 40.277557 # C
481 1 32.532448 15.359493 37.990929 # C
482 1 34.219421 15.383845 36.085396 # C
483 1 32.706440 17.187248 36.348351 # C
484 1 29.559767 18.945831 38.491711 # C
485 1 31.161856 18.974916 36.557709 # C
486 1 29.581654 20.749083 36.710827 # C
487 1 36.010902 15.402866 34.276806 # C
488 1 37.901848 15.413528 32.572025 # C
489 1 36.270561 17.223446 32.750191 # C
490 1 39.889282 15.414163 30.979265 # C
491 1 36.485641 19.022232 31.187824 # C
492 1 29.599749 22.542665 34.934853 # C
493 1 31.304527 22.566910 33.106716 # C
494 1 29.614117 24.326504 33.163616 # C
495 1 33.071259 22.579370 31.327625 # C
496 1 29.043800 26.696117 31.391495 # C
497 1 -21.375498 -21.321320 48.220322 # C
498 1 -21.375498 21.321320 -48.220322 # C
499 1 -21.375498 21.321320 48.220322 # C
500 1 -21.321320 -48.220322 -21.375498 # C
501 1 -21.321320 -48.220322 21.375498 # C
502 1 -21.321320 48.220322 -21.375498 # C
503 1 -21.321320 48.220322 21.375498 # C
504 1 -48.220322 -21.375498 -21.321320 # C
505 1 -48.220322 -21.375498 21.321320 # C
506 1 -48.220322 21.375498 -21.321320 # C
507 1 -48.220322 21.375498 21.321320 # C
508 1 48.220322 -21.375498 -21.321320 # C
509 1 48.220322 -21.375498 21.321320 # C
510 1 48.220322 21.375498 -21.321320 # C
511 1 48.220322 21.375498 21.321320 # C
512 1 21.321320 -48.220322 -21.375498 # C
513 1 21.321320 -48.220322 21.375498 # C
514 1 21.321320 48.220322 -21.375498 # C
515 1 21.321320 48.220322 21.375498 # C
516 1 21.375498 -21.321320 -48.220322 # C
517 1 21.375498 -21.321320 48.220322 # C
518 1 21.375498 21.321320 -48.220322 # C
519 1 -21.375498 -21.321320 -48.220322 # C
520 1 -36.712082 -9.867321 36.766373 # C
521 1 -36.712082 9.867321 -36.766373 # C
522 1 -36.712082 9.867321 36.766373 # C
523 1 -9.867321 -36.766373 -36.712082 # C
524 1 -9.867321 -36.766373 36.712082 # C
525 1 -9.867321 36.766373 -36.712082 # C
526 1 -9.867321 36.766373 36.712082 # C
527 1 -36.766373 -36.712082 -9.867321 # C
528 1 -36.766373 -36.712082 9.867321 # C
529 1 -36.766373 36.712082 -9.867321 # C
530 1 -36.766373 36.712082 9.867321 # C
531 1 36.766373 -36.712082 -9.867321 # C
532 1 36.766373 -36.712082 9.867321 # C
533 1 36.766373 36.712082 -9.867321 # C
534 1 36.766373 36.712082 9.867321 # C
535 1 9.867321 -36.766373 -36.712082 # C
536 1 9.867321 -36.766373 36.712082 # C
537 1 9.867321 36.766373 -36.712082 # C
538 1 9.867321 36.766373 36.712082 # C
539 1 36.712082 -9.867321 -36.766373 # C
540 1 36.712082 -9.867321 36.766373 # C
541 1 36.712082 9.867321 -36.766373 # C
542 1 -36.712082 -9.867321 -36.766373 # C
543 1 -11.796872 -26.709633 53.150459 # C
544 1 -11.796872 26.709633 -53.150459 # C
545 1 -11.796872 26.709633 53.150459 # C
546 1 -26.709633 -53.150459 -11.796872 # C
547 1 -26.709633 -53.150459 11.796872 # C
548 1 -26.709633 53.150459 -11.796872 # C
549 1 -26.709633 53.150459 11.796872 # C
550 1 -53.150459 -11.796872 -26.709633 # C
551 1 -53.150459 -11.796872 26.709633 # C
552 1 -53.150459 11.796872 -26.709633 # C
553 1 -53.150459 11.796872 26.709633 # C
554 1 53.150459 -11.796872 -26.709633 # C
555 1 53.150459 -11.796872 26.709633 # C
556 1 53.150459 11.796872 -26.709633 # C
557 1 53.150459 11.796872 26.709633 # C
558 1 26.709633 -53.150459 -11.796872 # C
559 1 26.709633 -53.150459 11.796872 # C
560 1 26.709633 53.150459 -11.796872 # C
561 1 26.709633 53.150459 11.796872 # C
562 1 11.796872 -26.709633 -53.150459 # C
563 1 11.796872 -26.709633 53.150459 # C
564 1 11.796872 26.709633 -53.150459 # C
565 1 -11.796872 -26.709633 -53.150459 # C
566 1 -26.726372 -11.732220 53.204266 # C
567 1 -26.726372 11.732220 -53.204266 # C
568 1 -26.726372 11.732220 53.204266 # C
569 1 -11.732220 -53.204266 -26.726372 # C
570 1 -11.732220 -53.204266 26.726372 # C
571 1 -11.732220 53.204266 -26.726372 # C
572 1 -11.732220 53.204266 26.726372 # C
573 1 -53.204266 -26.726372 -11.732220 # C
574 1 -53.204266 -26.726372 11.732220 # C
575 1 -53.204266 26.726372 -11.732220 # C
576 1 -53.204266 26.726372 11.732220 # C
577 1 53.204266 -26.726372 -11.732220 # C
578 1 53.204266 -26.726372 11.732220 # C
579 1 53.204266 26.726372 -11.732220 # C
580 1 53.204266 26.726372 11.732220 # C
581 1 11.732220 -53.204266 -26.726372 # C
582 1 11.732220 -53.204266 26.726372 # C
583 1 11.732220 53.204266 -26.726372 # C
584 1 11.732220 53.204266 26.726372 # C
585 1 26.726372 -11.732220 -53.204266 # C
586 1 26.726372 -11.732220 53.204266 # C
587 1 26.726372 11.732220 -53.204266 # C
588 1 -26.726372 -11.732220 -53.204266 # C
589 1 -24.604517 -24.553885 38.479595 # C
590 1 -24.604517 24.553885 -38.479595 # C
591 1 -24.604517 24.553885 38.479595 # C
592 1 -24.553885 -38.479595 -24.604517 # C
593 1 -24.553885 -38.479595 24.604517 # C
594 1 -24.553885 38.479595 -24.604517 # C
595 1 -24.553885 38.479595 24.604517 # C
596 1 -38.479595 -24.604517 -24.553885 # C
597 1 -38.479595 -24.604517 24.553885 # C
598 1 -38.479595 24.604517 -24.553885 # C
599 1 -38.479595 24.604517 24.553885 # C
600 1 38.479595 -24.604517 -24.553885 # C
601 1 38.479595 -24.604517 24.553885 # C
602 1 38.479595 24.604517 -24.553885 # C
603 1 38.479595 24.604517 24.553885 # C
604 1 24.553885 -38.479595 -24.604517 # C
605 1 24.553885 -38.479595 24.604517 # C
606 1 24.553885 38.479595 -24.604517 # C
607 1 24.553885 38.479595 24.604517 # C
608 1 24.604517 -24.553885 -38.479595 # C
609 1 24.604517 -24.553885 38.479595 # C
610 1 24.604517 24.553885 -38.479595 # C
611 1 -24.604517 -24.553885 -38.479595 # C
612 1 -31.361238 -4.883380 46.355511 # C
613 1 -31.361238 4.883380 -46.355511 # C
614 1 -31.361238 4.883380 46.355511 # C
615 1 -4.883380 -46.355511 -31.361238 # C
616 1 -4.883380 -46.355511 31.361238 # C
617 1 -4.883380 46.355511 -31.361238 # C
618 1 -4.883380 46.355511 31.361238 # C
619 1 -46.355511 -31.361238 -4.883380 # C
620 1 -46.355511 -31.361238 4.883380 # C
621 1 -46.355511 31.361238 -4.883380 # C
622 1 -46.355511 31.361238 4.883380 # C
623 1 46.355511 -31.361238 -4.883380 # C
624 1 46.355511 -31.361238 4.883380 # C
625 1 46.355511 31.361238 -4.883380 # C
626 1 46.355511 31.361238 4.883380 # C
627 1 4.883380 -46.355511 -31.361238 # C
628 1 4.883380 -46.355511 31.361238 # C
629 1 4.883380 46.355511 -31.361238 # C
630 1 4.883380 46.355511 31.361238 # C
631 1 31.361238 -4.883380 -46.355511 # C
632 1 31.361238 -4.883380 46.355511 # C
633 1 31.361238 4.883380 -46.355511 # C
634 1 -31.361238 -4.883380 -46.355511 # C
635 1 -46.290684 -4.937172 31.378025 # C
636 1 -46.290684 4.937172 -31.378025 # C
637 1 -46.290684 4.937172 31.378025 # C
638 1 -4.937172 -31.378025 -46.290684 # C
639 1 -4.937172 -31.378025 46.290684 # C
640 1 -4.937172 31.378025 -46.290684 # C
641 1 -4.937172 31.378025 46.290684 # C
642 1 -31.378025 -46.290684 -4.937172 # C
643 1 -31.378025 -46.290684 4.937172 # C
644 1 -31.378025 46.290684 -4.937172 # C
645 1 -31.378025 46.290684 4.937172 # C
646 1 31.378025 -46.290684 -4.937172 # C
647 1 31.378025 -46.290684 4.937172 # C
648 1 31.378025 46.290684 -4.937172 # C
649 1 31.378025 46.290684 4.937172 # C
650 1 4.937172 -31.378025 -46.290684 # C
651 1 4.937172 -31.378025 46.290684 # C
652 1 4.937172 31.378025 -46.290684 # C
653 1 4.937172 31.378025 46.290684 # C
654 1 46.290684 -4.937172 -31.378025 # C
655 1 46.290684 -4.937172 31.378025 # C
656 1 46.290684 4.937172 -31.378025 # C
657 1 -46.290684 -4.937172 -31.378025 # C
658 1 -33.483070 -19.608034 33.533737 # C
659 1 -33.483070 19.608034 -33.533737 # C
660 1 -33.483070 19.608034 33.533737 # C
661 1 -19.608034 -33.533737 -33.483070 # C
662 1 -19.608034 -33.533737 33.483070 # C
663 1 -19.608034 33.533737 -33.483070 # C
664 1 -19.608034 33.533737 33.483070 # C
665 1 -33.533737 -33.483070 -19.608034 # C
666 1 -33.533737 -33.483070 19.608034 # C
667 1 -33.533737 33.483070 -19.608034 # C
668 1 -33.533737 33.483070 19.608034 # C
669 1 33.533737 -33.483070 -19.608034 # C
670 1 33.533737 -33.483070 19.608034 # C
671 1 33.533737 33.483070 -19.608034 # C
672 1 33.533737 33.483070 19.608034 # C
673 1 19.608034 -33.533737 -33.483070 # C
674 1 19.608034 -33.533737 33.483070 # C
675 1 19.608034 33.533737 -33.483070 # C
676 1 19.608034 33.533737 33.483070 # C
677 1 33.483070 -19.608034 -33.533737 # C
678 1 33.483070 -19.608034 33.533737 # C
679 1 33.483070 19.608034 -33.533737 # C
680 1 -33.483070 -19.608034 -33.533737 # C
681 1 -25.396812 -18.073942 45.791668 # C
682 1 -25.396812 18.073942 -45.791668 # C
683 1 -25.396812 18.073942 45.791668 # C
684 1 -18.073942 -45.791668 -25.396812 # C
685 1 -18.073942 -45.791668 25.396812 # C
686 1 -18.073942 45.791668 -25.396812 # C
687 1 -18.073942 45.791668 25.396812 # C
688 1 -45.791668 -25.396812 -18.073942 # C
689 1 -45.791668 -25.396812 18.073942 # C
690 1 -45.791668 25.396812 -18.073942 # C
691 1 -45.791668 25.396812 18.073942 # C
692 1 45.791668 -25.396812 -18.073942 # C
693 1 45.791668 -25.396812 18.073942 # C
694 1 45.791668 25.396812 -18.073942 # C
695 1 45.791668 25.396812 18.073942 # C
696 1 18.073942 -45.791668 -25.396812 # C
697 1 18.073942 -45.791668 25.396812 # C
698 1 18.073942 45.791668 -25.396812 # C
699 1 18.073942 45.791668 25.396812 # C
700 1 25.396812 -18.073942 -45.791668 # C
701 1 25.396812 -18.073942 45.791668 # C
702 1 25.396812 18.073942 -45.791668 # C
703 1 -25.396812 -18.073942 -45.791668 # C
704 1 -18.165949 -25.361811 45.725342 # C
705 1 -18.165949 25.361811 -45.725342 # C
706 1 -18.165949 25.361811 45.725342 # C
707 1 -25.361811 -45.725342 -18.165949 # C
708 1 -25.361811 -45.725342 18.165949 # C
709 1 -25.361811 45.725342 -18.165949 # C
710 1 -25.361811 45.725342 18.165949 # C
711 1 -45.725342 -18.165949 -25.361811 # C
712 1 -45.725342 -18.165949 25.361811 # C
713 1 -45.725342 18.165949 -25.361811 # C
714 1 -45.725342 18.165949 25.361811 # C
715 1 45.725342 -18.165949 -25.361811 # C
716 1 45.725342 -18.165949 25.361811 # C
717 1 45.725342 18.165949 -25.361811 # C
718 1 45.725342 18.165949 25.361811 # C
719 1 25.361811 -45.725342 -18.165949 # C
720 1 25.361811 -45.725342 18.165949 # C
721 1 25.361811 45.725342 -18.165949 # C
722 1 25.361811 45.725342 18.165949 # C
723 1 18.165949 -25.361811 -45.725342 # C
724 1 18.165949 -25.361811 45.725342 # C
725 1 18.165949 25.361811 -45.725342 # C
726 1 -18.165949 -25.361811 -45.725342 # C
727 1 -20.501856 -20.466198 53.181755 # C
728 1 -20.501856 20.466198 -53.181755 # C
729 1 -20.501856 20.466198 53.181755 # C
730 1 -20.466198 -53.181755 -20.501856 # C
731 1 -20.466198 -53.181755 20.501856 # C
732 1 -20.466198 53.181755 -20.501856 # C
733 1 -20.466198 53.181755 20.501856 # C
734 1 -53.181755 -20.501856 -20.466198 # C
735 1 -53.181755 -20.501856 20.466198 # C
736 1 -53.181755 20.501856 -20.466198 # C
737 1 -53.181755 20.501856 20.466198 # C
738 1 53.181755 -20.501856 -20.466198 # C
739 1 53.181755 -20.501856 20.466198 # C