LAMMPS data file. CGCMM style. atom_style atomic generated by VMD/TopoTools v1.6 on Wed Oct 05 14:49:15 EDT 2016
 12288 atoms
 0 bonds
 0 angles
 0 dihedrals
 0 impropers
 1 atom types
 0 bond types
 0 angle types
 0 dihedral types
 0 improper types
 -58.17036 58.17036  xlo xhi
 -58.17036 58.17036  ylo yhi
 -58.17036 58.17036  zlo zhi

# Pair Coeffs
#
# 1  C

 Masses

 1 12.010700 # C

 Atoms

1 1 21.367643 21.313486 48.202606 # C
2 1 36.698593 9.863696 36.752865 # C
3 1 11.792537 26.699820 53.130932 # C
4 1 26.716553 11.727910 53.184719 # C
5 1 24.595476 24.544863 38.465458 # C
6 1 31.349716 4.881585 46.338478 # C
7 1 46.273678 4.935358 31.366499 # C
8 1 33.470768 19.600830 33.521420 # C
9 1 25.387482 18.067303 45.774845 # C
10 1 18.159275 25.352491 45.708542 # C
11 1 20.494324 20.458677 53.162212 # C
12 1 39.906952 12.357765 32.713818 # C
13 1 32.678776 12.291460 39.999039 # C
14 1 37.571911 4.904075 37.607716 # C
15 1 6.133631 28.387421 55.594307 # C
16 1 16.085991 23.782701 55.620033 # C
17 1 13.070678 27.543287 48.162769 # C
18 1 23.808529 16.041706 55.634552 # C
19 1 28.393454 6.085687 55.630894 # C
20 1 27.557753 12.968256 48.259220 # C
21 1 19.892593 26.985516 40.847668 # C
22 1 27.009966 19.805681 40.912666 # C
23 1 26.724167 26.706518 33.732121 # C
24 1 29.672817 2.435401 51.980656 # C
25 1 34.257725 2.431730 42.024712 # C
26 1 30.508512 9.807103 45.098103 # C
27 1 41.980217 2.446243 34.283672 # C
28 1 51.932594 2.471972 29.678862 # C
29 1 44.995541 9.903539 30.523005 # C
30 1 31.056293 17.153625 38.260616 # C
31 1 38.173634 17.218639 31.080765 # C
32 1 31.342087 24.334160 31.359751 # C
33 1 19.183451 22.835361 49.428802 # C
34 1 22.874876 19.123848 49.456104 # C
35 1 22.008980 21.945967 45.734192 # C
36 1 35.191368 8.610194 38.942524 # C
37 1 38.882778 8.637496 35.230991 # C
38 1 36.057262 12.332109 36.120365 # C
39 1 14.403230 25.555567 51.896225 # C
40 1 9.623117 27.929243 51.875187 # C
41 1 11.333717 26.544985 55.610657 # C
42 1 27.939993 9.540189 51.952595 # C
43 1 25.577900 14.337898 51.950230 # C
44 1 26.560732 11.284581 55.636909 # C
45 1 26.837128 23.243767 37.296413 # C
46 1 23.298021 26.811420 37.267406 # C
47 1 23.636414 23.574257 40.862778 # C
48 1 32.488365 6.116075 43.728497 # C
49 1 30.126276 6.113728 48.526176 # C
50 1 31.505541 2.429379 46.781815 # C
51 1 48.443104 6.191110 30.137047 # C
52 1 43.662987 6.170067 32.510765 # C
53 1 46.732487 2.455620 31.521341 # C
54 1 34.768215 20.798889 31.254852 # C
55 1 31.229130 20.769869 34.822510 # C
56 1 34.429829 17.203518 34.492039 # C
57 1 27.248087 16.384733 44.572372 # C
58 1 24.120447 20.436436 44.528019 # C
59 1 24.764271 17.371557 48.235569 # C
60 1 20.517658 24.070795 44.491402 # C
61 1 16.488922 27.228836 44.481255 # C
62 1 17.451258 24.730875 48.177361 # C
63 1 22.461632 18.661184 51.933414 # C
64 1 18.707733 22.429157 51.913628 # C
65 1 20.277170 20.241568 55.627789 # C
66 1 41.577297 13.585060 30.837452 # C
67 1 37.548576 13.574900 33.995518 # C
68 1 40.614967 9.888943 33.335449 # C
69 1 33.945801 13.538279 37.629890 # C
70 1 30.818174 13.493938 41.681599 # C
71 1 33.301983 9.830735 40.694809 # C
72 1 39.358494 6.152667 35.637215 # C
73 1 35.604614 6.132881 39.405209 # C
74 1 37.789059 2.438492 37.824844 # C
75 1 3.113915 28.857599 56.825001 # C
76 1 8.558215 27.577332 56.837711 # C
77 1 6.739016 28.605844 53.103539 # C
78 1 13.628665 25.261406 56.844070 # C
79 1 18.179884 22.067575 56.848301 # C
80 1 16.408253 23.940477 53.146915 # C
81 1 10.327469 28.391548 49.390160 # C
82 1 14.981848 25.958242 49.409222 # C
83 1 13.879522 28.213730 45.704002 # C
84 1 22.102318 18.135441 56.851921 # C
85 1 25.283457 13.580949 56.854214 # C
86 1 23.966145 16.358814 53.177216 # C
87 1 27.587257 8.516207 56.853088 # C
88 1 28.859116 3.083655 56.847546 # C
89 1 28.610664 6.662198 53.176411 # C
90 1 25.982229 14.897903 49.482277 # C
91 1 28.398384 10.225200 49.489700 # C
92 1 28.222483 13.771873 45.806934 # C
93 1 17.399137 28.072403 42.059048 # C
94 1 21.354855 24.881826 42.056522 # C
95 1 20.894453 27.966797 38.461338 # C
96 1 24.929020 21.273710 42.093544 # C
97 1 28.083578 17.304579 42.144699 # C
98 1 27.979702 20.827869 38.515743 # C
99 1 24.377602 27.895889 34.907108 # C
100 1 27.907284 24.345282 34.928135 # C
101 1 27.865507 27.860312 31.382664 # C
102 1 29.207151 1.218735 54.982651 # C
103 1 30.479017 1.213188 49.550163 # C
104 1 29.455603 4.889909 51.404148 # C
105 1 32.782810 1.212061 44.485462 # C
106 1 35.963921 1.214351 39.930984 # C
107 1 34.100109 4.889078 41.707588 # C
108 1 29.667883 8.576634 47.841156 # C
109 1 32.084030 8.584035 43.168472 # C
110 1 29.843781 12.259390 44.294464 # C
111 1 39.886326 1.217972 35.998829 # C
112 1 44.437531 1.222201 32.804955 # C
113 1 41.657963 4.919375 34.125881 # C
114 1 49.507992 1.228561 30.488976 # C
115 1 54.952328 1.241272 29.208670 # C
116 1 51.327213 4.962755 29.460432 # C
117 1 43.084370 8.657082 32.108074 # C
118 1 47.738750 8.676151 29.674728 # C
119 1 44.186691 12.362316 29.852547 # C
120 1 29.982683 15.921601 40.761730 # C
121 1 33.137230 15.972750 36.792595 # C
122 1 30.086559 19.550539 37.238419 # C
123 1 36.711380 16.009777 33.184467 # C
124 1 40.667076 16.007269 29.993872 # C
125 1 37.171772 19.604971 30.099474 # C
126 1 30.158978 23.138138 33.720989 # C
127 1 33.688637 23.159185 30.170380 # C
128 1 30.200750 26.683611 30.205954 # C
129 1 22.414362 20.523815 47.592384 # C
130 1 20.586950 22.363720 47.576225 # C
131 1 21.096918 21.048145 49.441750 # C
132 1 37.479282 10.490074 35.702621 # C
133 1 35.651882 10.473918 37.542538 # C
134 1 36.969318 8.624550 37.018215 # C
135 1 10.430855 27.202579 53.747814 # C
136 1 12.873909 26.029728 53.756611 # C
137 1 12.067537 26.844637 51.887081 # C
138 1 26.048397 12.816972 53.799076 # C
139 1 27.216572 10.368259 53.798969 # C
140 1 26.861700 11.992786 51.953938 # C
141 1 23.449680 25.179417 39.055134 # C
142 1 25.224751 23.387764 39.072380 # C
143 1 25.103348 25.060358 37.275337 # C
144 1 30.849699 4.267334 47.698120 # C
145 1 32.017872 4.267223 45.249424 # C
146 1 31.204567 6.112376 46.073597 # C
147 1 45.192303 4.309675 32.036606 # C
148 1 47.635361 4.318471 30.863729 # C
149 1 45.998680 6.179214 31.221676 # C
150 1 32.841499 18.993908 34.678520 # C
151 1 34.616562 19.011160 32.886868 # C
152 1 32.962898 20.790947 33.005917 # C
153 1 24.421507 18.897160 46.378609 # C
154 1 25.980198 16.838924 46.398052 # C
155 1 25.748104 18.459581 44.551056 # C
156 1 16.934973 25.951395 46.320404 # C
157 1 18.979906 24.380335 46.328339 # C
158 1 18.554642 25.713907 44.482632 # C
159 1 19.452753 21.327169 53.777206 # C
160 1 21.359167 19.415279 53.784061 # C
161 1 20.658348 20.619551 51.923328 # C
162 1 39.086323 11.737966 33.685986 # C
163 1 41.131252 11.745903 32.114910 # C
164 1 39.511585 13.583675 32.352394 # C
165 1 32.086060 11.668254 41.227425 # C
166 1 33.644745 11.687694 39.169186 # C
167 1 32.318150 13.515246 39.606750 # C
168 1 36.707069 4.282227 38.651123 # C
169 1 38.613472 4.289081 36.739223 # C
170 1 37.407887 6.142963 37.446835 # C
171 1 7.599623 28.052240 54.978897 # C
172 1 4.930941 28.727068 54.964577 # C
173 1 5.871628 28.358406 56.832565 # C
174 1 17.250389 22.993002 55.006191 # C
175 1 15.022926 24.574097 55.001190 # C
176 1 15.976527 23.765123 56.846306 # C
177 1 14.392156 27.051947 47.548161 # C
178 1 12.107902 28.298080 47.542648 # C
179 1 12.707592 27.268867 49.400898 # C
180 1 24.596975 14.976090 55.023666 # C
181 1 23.020514 17.208242 55.020214 # C
182 1 23.793682 15.929443 56.853359 # C
183 1 28.730434 4.874924 55.015205 # C
184 1 28.060808 7.545016 55.021370 # C
185 1 28.363604 5.835478 56.850777 # C
186 1 28.305820 12.000535 47.646706 # C
187 1 27.070648 14.291042 47.640511 # C
188 1 27.284916 12.612822 49.489529 # C
189 1 21.101376 26.404394 40.246689 # C
190 1 19.149174 28.015219 40.254288 # C
191 1 19.423672 26.533663 42.052078 # C
192 1 28.027493 19.067146 40.325436 # C
193 1 26.435980 21.021397 40.297241 # C
194 1 26.562553 19.331217 42.119682 # C
195 1 27.882362 26.102753 33.150539 # C
196 1 26.119667 27.873556 33.142410 # C
197 1 26.170776 26.145041 34.909809 # C
198 1 30.005463 3.044931 50.521343 # C
199 1 29.335833 3.051101 53.191406 # C
200 1 29.702667 1.215506 52.230862 # C
201 1 35.045734 3.046071 40.858173 # C
202 1 33.469288 3.042620 43.090321 # C
203 1 34.272572 1.212916 42.136978 # C
204 1 30.995613 10.425809 43.775314 # C
205 1 29.760445 10.419627 46.065815 # C
206 1 30.781347 8.576794 45.453545 # C
207 1 43.043282 3.065091 33.492264 # C
208 1 40.815823 3.060088 35.073380 # C
209 1 42.089672 1.219964 34.301258 # C
210 1 53.135296 3.101705 29.339207 # C
211 1 50.466599 3.087384 30.014051 # C
212 1 52.194595 1.233706 29.707878 # C
213 1 45.958313 10.523664 29.768198 # C
214 1 43.674065 10.518148 31.014351 # C
215 1 45.358627 8.665407 30.797430 # C
216 1 31.630278 17.769047 37.044899 # C
217 1 30.038769 17.740856 38.999149 # C
218 1 31.503704 15.946613 38.735092 # C
219 1 38.917046 17.812027 30.051054 # C
220 1 36.964855 17.819613 31.661886 # C
221 1 38.642555 16.014231 31.532623 # C
222 1 31.946581 24.923874 30.192711 # C
223 1 30.183895 24.915733 31.963516 # C
224 1 31.895473 23.156473 31.921230 # C
225 1 18.041203 23.559950 50.044399 # C
226 1 20.029190 21.841614 50.055779 # C
227 1 19.470486 23.092125 48.188396 # C
228 1 21.883207 19.978342 50.068699 # C
229 1 23.593786 17.979536 50.082085 # C
230 1 23.135305 19.403980 48.218933 # C
231 1 20.913212 22.675138 46.341400 # C
232 1 22.729439 20.844875 46.358795 # C
233 1 22.374619 22.309071 44.507133 # C
234 1 34.472466 7.984218 40.086842 # C
235 1 36.183037 7.997601 38.088032 # C
236 1 34.930943 9.847366 38.662380 # C
237 1 38.037045 8.010519 36.224751 # C
238 1 40.025024 8.021897 34.506397 # C
239 1 38.595745 9.877905 34.974216 # C
240 1 35.336807 11.707504 37.221466 # C
241 1 37.153027 11.724901 35.391193 # C
242 1 35.691624 13.559167 35.757252 # C
243 1 15.652767 24.924601 51.278397 # C
244 1 13.390681 26.312090 51.269585 # C
245 1 14.161457 25.418020 53.139400 # C
246 1 11.015449 27.507822 51.259289 # C
247 1 8.537873 28.494089 51.244553 # C
248 1 9.313522 27.768818 53.119862 # C
249 1 12.662785 25.955984 54.995579 # C
250 1 10.183158 27.121489 54.988575 # C
251 1 11.150364 26.538271 56.841335 # C
252 1 28.499998 8.445698 51.333729 # C
253 1 27.521521 10.930846 51.337936 # C
254 1 27.780190 9.242479 53.182842 # C
255 1 26.332077 13.315502 51.336018 # C
256 1 24.950096 15.588070 51.329311 # C
257 1 25.439365 14.104245 53.182507 # C
258 1 27.134943 10.129842 55.024811 # C
259 1 25.974203 12.612061 55.025425 # C
260 1 26.553949 11.104321 56.854202 # C
261 1 27.939734 22.587141 36.716492 # C
262 1 26.240726 24.427319 36.691338 # C
263 1 26.329020 22.719709 38.487335 # C
264 1 24.472212 26.209873 36.677067 # C
265 1 22.636620 27.927021 36.679413 # C
266 1 22.783361 26.296461 38.455353 # C
267 1 24.747431 22.899969 40.271500 # C
268 1 22.967936 24.696604 40.253334 # C
269 1 23.191191 23.126047 42.071194 # C
270 1 33.116161 6.736992 42.478321 # C
271 1 31.734188 6.730294 44.750881 # C
272 1 32.626900 4.883794 43.962154 # C
273 1 30.544746 6.728383 47.135525 # C
274 1 29.566267 6.732602 49.620655 # C
275 1 30.286079 4.883470 48.823891 # C
276 1 32.092068 3.040866 45.454342 # C
277 1 30.931330 3.041485 47.936543 # C
278 1 31.512325 1.212075 46.962074 # C
279 1 49.528351 6.821750 29.572189 # C
280 1 47.050770 6.807008 30.558475 # C
281 1 48.752697 4.946429 30.297478 # C
282 1 44.675533 6.796712 31.754229 # C
283 1 42.413452 6.787898 33.141739 # C
284 1 43.904755 4.926887 32.648319 # C
285 1 47.883053 3.077707 30.944824 # C
286 1 45.403419 3.070701 32.110352 # C
287 1 46.915833 1.224934 31.528061 # C
288 1 35.429611 21.386889 30.139250 # C
289 1 33.594032 21.389221 31.856401 # C
290 1 35.282875 19.610945 31.769817 # C
291 1 31.825525 21.374947 33.638958 # C
292 1 30.126528 21.349789 35.479137 # C
293 1 31.737234 19.578947 35.346577 # C
294 1 35.098305 17.812962 33.369686 # C
295 1 33.318817 17.794792 35.166321 # C
296 1 34.875053 15.995101 34.940254 # C
297 1 28.148458 15.539693 43.972359 # C
298 1 26.709881 17.647575 43.952721 # C
299 1 26.879026 15.968360 45.793919 # C
300 1 25.141817 19.663849 43.929054 # C
301 1 23.454765 21.582390 43.905972 # C
302 1 23.760759 20.062025 45.753788 # C
303 1 25.667364 16.480165 47.627216 # C
304 1 24.111130 18.560175 47.610168 # C
305 1 24.507357 17.071053 49.470310 # C
306 1 21.656630 23.396896 43.887161 # C
307 1 19.753052 25.100403 43.875248 # C
308 1 20.139881 23.712143 45.718582 # C
309 1 17.747822 26.684481 43.871559 # C
310 1 15.642967 28.138523 43.875778 # C
311 1 16.071442 26.857166 45.704189 # C
312 1 18.636770 24.071737 47.563324 # C
313 1 16.570091 25.638374 47.554237 # C
314 1 17.142725 24.475851 49.418030 # C
315 1 23.391918 17.738319 51.319572 # C
316 1 21.671829 19.756897 51.308517 # C
317 1 22.312996 18.480436 53.170074 # C
318 1 19.801998 21.634464 51.297543 # C
319 1 17.792677 23.360897 51.287460 # C
320 1 18.522514 22.282736 53.154408 # C
321 1 21.261175 19.296417 55.015804 # C
322 1 19.333593 21.228918 55.011036 # C
323 1 20.226131 20.185947 56.850178 # C
324 1 42.423244 14.190540 29.927753 # C
325 1 40.318401 14.194753 31.381811 # C
326 1 41.994778 12.362120 31.209127 # C
327 1 38.313179 14.191056 32.965900 # C
328 1 36.409611 14.179139 34.669415 # C
329 1 37.926353 12.347720 34.354179 # C
330 1 41.496132 10.512068 32.427940 # C
331 1 39.429459 10.502979 33.994591 # C
332 1 40.923500 8.648271 33.590485 # C
333 1 34.611481 14.160327 36.483929 # C
334 1 32.924435 14.137245 38.402473 # C
335 1 34.305489 12.312514 38.004314 # C
336 1 31.356379 14.113584 40.418751 # C
337 1 29.917805 14.093956 42.526630 # C
338 1 31.187235 12.272393 42.097980 # C
339 1 33.955120 10.456133 39.506184 # C
340 1 32.398891 10.439091 41.586193 # C
341 1 33.558895 8.595993 40.995323 # C
342 1 40.273548 6.778833 34.705460 # C
343 1 38.264233 6.768754 36.431911 # C
344 1 39.543709 4.911882 35.783646 # C
345 1 36.394413 6.757778 38.309486 # C
346 1 34.674332 6.746727 40.328072 # C
347 1 35.753250 4.896218 39.585964 # C
348 1 38.732632 3.055247 36.837482 # C
349 1 36.805061 3.050478 38.769993 # C
350 1 37.840092 1.216094 37.880470 # C
351 1 1.568730 28.979134 57.443375 # C
352 1 4.369723 28.644053 57.447891 # C
353 1 3.413130 28.911600 55.579945 # C
354 1 7.114746 28.009720 57.450939 # C
355 1 9.776931 27.101269 57.453037 # C
356 1 8.781090 27.590837 55.603928 # C
357 1 5.251591 28.848598 53.717117 # C
358 1 7.884359 28.149130 53.735588 # C
359 1 7.082935 28.790377 51.857174 # C
360 1 12.334396 25.941029 57.454567 # C
361 1 14.768426 24.548279 57.455769 # C
362 1 13.773702 25.269648 55.615765 # C
363 1 17.063086 22.941662 57.456802 # C
364 1 19.204716 21.139536 57.457764 # C
365 1 18.257725 22.101337 55.623962 # C
366 1 15.199558 24.648727 53.763798 # C
367 1 17.396021 23.076147 53.770466 # C
368 1 16.619690 24.078806 51.904690 # C
369 1 8.906279 28.736843 50.002300 # C
370 1 11.351396 27.727373 50.016514 # C
371 1 10.720890 28.687838 48.154423 # C
372 1 13.694790 26.516771 50.026180 # C
373 1 15.927277 25.122595 50.034798 # C
374 1 15.316129 26.218998 48.169331 # C
375 1 12.526316 28.643375 46.315189 # C
376 1 14.782586 27.377094 46.316856 # C
377 1 14.322421 28.603489 44.485863 # C
378 1 21.180349 19.158720 57.458679 # C
379 1 22.975880 17.013899 57.459507 # C
380 1 22.132105 18.217522 55.631435 # C
381 1 24.575130 14.718493 57.460117 # C
382 1 25.960423 12.286469 57.460361 # C
383 1 25.290455 13.726282 55.636570 # C
384 1 23.103411 17.352299 53.790596 # C
385 1 24.671692 15.149142 53.795952 # C
386 1 24.106016 16.564091 51.942852 # C
387 1 27.113808 9.733839 57.460106 # C
388 1 28.016605 7.079063 57.459251 # C
389 1 27.601610 8.731951 55.635090 # C
390 1 28.646830 4.343223 57.457790 # C
391 1 28.979378 1.551481 57.456024 # C
392 1 28.912872 3.365147 55.624844 # C
393 1 28.157759 7.817126 53.794964 # C
394 1 28.850695 5.179324 53.787128 # C
395 1 28.793102 6.993060 51.945431 # C
396 1 25.149570 15.853815 50.094257 # C
397 1 26.536932 13.609762 50.103115 # C
398 1 26.243109 15.223749 48.249977 # C
399 1 27.739882 11.256621 50.106426 # C
400 1 28.740030 8.804934 50.102345 # C
401 1 28.691486 10.613680 48.260284 # C
402 1 27.393732 14.676894 46.413612 # C
403 1 28.647467 12.418301 46.421314 # C
404 1 28.608150 14.218299 44.587223 # C
405 1 16.109407 28.568167 42.667320 # C
406 1 18.191595 27.098400 42.657810 # C
407 1 17.887793 28.537369 40.859932 # C
408 1 20.178307 25.506239 42.658440 # C
409 1 22.068567 23.802092 42.669090 # C
410 1 21.809000 25.328131 40.849182 # C
411 1 19.658415 28.510983 39.063587 # C
412 1 21.593992 26.889912 39.051060 # C
413 1 21.422421 28.488947 37.277634 # C
414 1 23.859400 21.994171 42.688103 # C
415 1 25.545757 20.089340 42.712444 # C
416 1 25.371828 21.731300 40.885357 # C
417 1 27.120390 18.093719 42.737953 # C
418 1 28.573442 16.013393 42.759453 # C
419 1 28.543268 17.803539 40.939198 # C
420 1 26.915852 21.522011 39.098339 # C
421 1 29.033131 18.996574 39.069717 # C
422 1 28.495478 21.368940 37.324818 # C
423 1 23.181273 28.471207 35.500969 # C
424 1 25.007137 26.750154 35.495213 # C
425 1 24.936741 28.457813 33.731995 # C
426 1 26.773230 24.971718 35.507660 # C
427 1 29.033131 22.557913 35.508362 # C
428 1 28.463026 24.914839 33.748707 # C
429 1 26.690903 28.448875 31.968704 # C
430 1 29.033129 26.095787 31.970482 # C
431 1 28.446173 28.444569 30.208656 # C
432 1 29.086889 0.610251 56.514805 # C
433 1 29.419439 0.608484 53.723095 # C
434 1 29.153395 2.441457 54.701164 # C
435 1 30.049667 0.607022 50.987289 # C
436 1 30.952467 0.606167 48.332542 # C
437 1 30.464663 2.431202 49.334419 # C
438 1 29.215570 4.279191 52.887009 # C
439 1 29.908510 4.271349 50.249233 # C
440 1 29.273165 6.120904 51.073284 # C
441 1 32.105846 0.605908 45.779938 # C
442 1 33.491131 0.606152 43.347927 # C
443 1 32.775810 2.429714 44.340130 # C
444 1 35.090366 0.606763 41.052528 # C
445 1 36.885880 0.607588 38.907703 # C
446 1 35.934139 2.434844 39.848896 # C
447 1 33.394569 4.270343 42.917263 # C
448 1 34.962837 4.275695 40.714111 # C
449 1 33.960239 6.123446 41.502308 # C
450 1 29.326235 7.963994 49.261417 # C
451 1 30.326384 7.959897 46.809746 # C
452 1 29.374779 9.806054 47.452667 # C
453 1 31.529331 7.963198 44.456615 # C
454 1 32.916687 7.972048 42.212566 # C
455 1 31.823151 9.816335 42.842613 # C
456 1 29.418798 11.645019 45.648041 # C
457 1 30.672529 11.652704 43.389454 # C
458 1 29.458115 13.479099 43.848030 # C
459 1 38.861500 0.608506 36.926880 # C
460 1 41.003117 0.609465 35.124737 # C
461 1 39.808491 2.442315 35.965057 # C
462 1 43.297768 0.610499 33.518093 # C
463 1 45.731796 0.611702 32.125317 # C
464 1 44.292500 2.450514 32.796703 # C
465 1 40.670197 4.295820 34.990227 # C
466 1 42.866653 4.302490 33.417625 # C
467 1 41.446529 6.161602 33.987549 # C
468 1 48.289265 0.613232 30.965052 # C
469 1 50.951466 0.615329 30.056576 # C
470 1 49.285122 2.462350 30.475468 # C
471 1 53.696507 0.618377 29.422226 # C
472 1 50.181862 4.330699 29.917156 # C
473 1 42.138943 8.031502 32.943737 # C
474 1 44.371429 8.040122 31.549541 # C
475 1 42.750092 9.896975 31.847313 # C
476 1 46.714821 8.049791 30.338919 # C
477 1 43.283630 11.749458 30.689196 # C
478 1 29.492823 15.306858 42.052921 # C
479 1 30.945869 15.328346 39.972595 # C
480 1 29.522995 17.127098 40.262760 # C
481 1 32.520496 15.353850 37.976971 # C
482 1 34.206848 15.378193 36.072136 # C
483 1 32.694424 17.180935 36.334995 # C
484 1 29.033131 19.598167 38.468121 # C
485 1 31.150406 18.967945 36.544277 # C
486 1 29.570786 20.741461 36.697338 # C
487 1 35.997669 15.397207 34.264214 # C
488 1 37.887924 15.407865 32.560059 # C
489 1 36.257236 17.217117 32.738155 # C
490 1 39.874626 15.408500 30.967882 # C
491 1 36.472237 19.015244 31.176365 # C
492 1 29.033131 23.153807 34.912464 # C
493 1 31.293026 22.558619 33.094555 # C
494 1 29.603235 24.317566 33.151432 # C
495 1 33.059105 22.571075 31.316116 # C
496 1 29.033129 26.686310 31.379961 # C
497 1 -21.367643 -21.313486 48.202606 # C
498 1 -21.367643 21.313486 -48.202606 # C
499 1 -21.367643 21.313486 48.202606 # C
500 1 -21.313486 -48.202606 -21.367643 # C
501 1 -21.313486 -48.202606 21.367643 # C
502 1 -21.313486 48.202606 -21.367643 # C
503 1 -21.313486 48.202606 21.367643 # C
504 1 -48.202606 -21.367643 -21.313486 # C
505 1 -48.202606 -21.367643 21.313486 # C
506 1 -48.202606 21.367643 -21.313486 # C
507 1 -48.202606 21.367643 21.313486 # C
508 1 48.202606 -21.367643 -21.313486 # C
509 1 48.202606 -21.367643 21.313486 # C
510 1 48.202606 21.367643 -21.313486 # C
511 1 48.202606 21.367643 21.313486 # C
512 1 21.313486 -48.202606 -21.367643 # C
513 1 21.313486 -48.202606 21.367643 # C
514 1 21.313486 48.202606 -21.367643 # C
515 1 21.313486 48.202606 21.367643 # C
516 1 21.367643 -21.313486 -48.202606 # C
517 1 21.367643 -21.313486 48.202606 # C
518 1 21.367643 21.313486 -48.202606 # C
519 1 -21.367643 -21.313486 -48.202606 # C
520 1 -36.698593 -9.863696 36.752865 # C
521 1 -36.698593 9.863696 -36.752865 # C
522 1 -36.698593 9.863696 36.752865 # C
523 1 -9.863696 -36.752865 -36.698593 # C
524 1 -9.863696 -36.752865 36.698593 # C
525 1 -9.863696 36.752865 -36.698593 # C
526 1 -9.863696 36.752865 36.698593 # C
527 1 -36.752865 -36.698593 -9.863696 # C
528 1 -36.752865 -36.698593 9.863696 # C
529 1 -36.752865 36.698593 -9.863696 # C
530 1 -36.752865 36.698593 9.863696 # C
531 1 36.752865 -36.698593 -9.863696 # C
532 1 36.752865 -36.698593 9.863696 # C
533 1 36.752865 36.698593 -9.863696 # C
534 1 36.752865 36.698593 9.863696 # C
535 1 9.863696 -36.752865 -36.698593 # C
536 1 9.863696 -36.752865 36.698593 # C
537 1 9.863696 36.752865 -36.698593 # C
538 1 9.863696 36.752865 36.698593 # C
539 1 36.698593 -9.863696 -36.752865 # C
540 1 36.698593 -9.863696 36.752865 # C
541 1 36.698593 9.863696 -36.752865 # C
542 1 -36.698593 -9.863696 -36.752865 # C
543 1 -11.792537 -26.699820 53.130932 # C
544 1 -11.792537 26.699820 -53.130932 # C
545 1 -11.792537 26.699820 53.130932 # C
546 1 -26.699820 -53.130932 -11.792537 # C
547 1 -26.699820 -53.130932 11.792537 # C
548 1 -26.699820 53.130932 -11.792537 # C
549 1 -26.699820 53.130932 11.792537 # C
550 1 -53.130932 -11.792537 -26.699820 # C
551 1 -53.130932 -11.792537 26.699820 # C
552 1 -53.130932 11.792537 -26.699820 # C
553 1 -53.130932 11.792537 26.699820 # C
554 1 53.130932 -11.792537 -26.699820 # C
555 1 53.130932 -11.792537 26.699820 # C
556 1 53.130932 11.792537 -26.699820 # C
557 1 53.130932 11.792537 26.699820 # C
558 1 26.699820 -53.130932 -11.792537 # C
559 1 26.699820 -53.130932 11.792537 # C
560 1 26.699820 53.130932 -11.792537 # C
561 1 26.699820 53.130932 11.792537 # C
562 1 11.792537 -26.699820 -53.130932 # C
563 1 11.792537 -26.699820 53.130932 # C
564 1 11.792537 26.699820 -53.130932 # C
565 1 -11.792537 -26.699820 -53.130932 # C
566 1 -26.716553 -11.727910 53.184719 # C
567 1 -26.716553 11.727910 -53.184719 # C
568 1 -26.716553 11.727910 53.184719 # C
569 1 -11.727910 -53.184719 -26.716553 # C
570 1 -11.727910 -53.184719 26.716553 # C
571 1 -11.727910 53.184719 -26.716553 # C
572 1 -11.727910 53.184719 26.716553 # C
573 1 -53.184719 -26.716553 -11.727910 # C
574 1 -53.184719 -26.716553 11.727910 # C
575 1 -53.184719 26.716553 -11.727910 # C
576 1 -53.184719 26.716553 11.727910 # C
577 1 53.184719 -26.716553 -11.727910 # C
578 1 53.184719 -26.716553 11.727910 # C
579 1 53.184719 26.716553 -11.727910 # C
580 1 53.184719 26.716553 11.727910 # C
581 1 11.727910 -53.184719 -26.716553 # C
582 1 11.727910 -53.184719 26.716553 # C
583 1 11.727910 53.184719 -26.716553 # C
584 1 11.727910 53.184719 26.716553 # C
585 1 26.716553 -11.727910 -53.184719 # C
586 1 26.716553 -11.727910 53.184719 # C
587 1 26.716553 11.727910 -53.184719 # C
588 1 -26.716553 -11.727910 -53.184719 # C
589 1 -24.595476 -24.544863 38.465458 # C
590 1 -24.595476 24.544863 -38.465458 # C
591 1 -24.595476 24.544863 38.465458 # C
592 1 -24.544863 -38.465458 -24.595476 # C
593 1 -24.544863 -38.465458 24.595476 # C
594 1 -24.544863 38.465458 -24.595476 # C
595 1 -24.544863 38.465458 24.595476 # C
596 1 -38.465458 -24.595476 -24.544863 # C
597 1 -38.465458 -24.595476 24.544863 # C
598 1 -38.465458 24.595476 -24.544863 # C
599 1 -38.465458 24.595476 24.544863 # C
600 1 38.465458 -24.595476 -24.544863 # C
601 1 38.465458 -24.595476 24.544863 # C
602 1 38.465458 24.595476 -24.544863 # C
603 1 38.465458 24.595476 24.544863 # C
604 1 24.544863 -38.465458 -24.595476 # C
605 1 24.544863 -38.465458 24.595476 # C
606 1 24.544863 38.465458 -24.595476 # C
607 1 24.544863 38.465458 24.595476 # C
608 1 24.595476 -24.544863 -38.465458 # C
609 1 24.595476 -24.544863 38.465458 # C
610 1 24.595476 24.544863 -38.465458 # C
611 1 -24.595476 -24.544863 -38.465458 # C
612 1 -31.349716 -4.881585 46.338478 # C
613 1 -31.349716 4.881585 -46.338478 # C
614 1 -31.349716 4.881585 46.338478 # C
615 1 -4.881585 -46.338478 -31.349716 # C
616 1 -4.881585 -46.338478 31.349716 # C
617 1 -4.881585 46.338478 -31.349716 # C
618 1 -4.881585 46.338478 31.349716 # C
619 1 -46.338478 -31.349716 -4.881585 # C
620 1 -46.338478 -31.349716 4.881585 # C
621 1 -46.338478 31.349716 -4.881585 # C
622 1 -46.338478 31.349716 4.881585 # C
623 1 46.338478 -31.349716 -4.881585 # C
624 1 46.338478 -31.349716 4.881585 # C
625 1 46.338478 31.349716 -4.881585 # C
626 1 46.338478 31.349716 4.881585 # C
627 1 4.881585 -46.338478 -31.349716 # C
628 1 4.881585 -46.338478 31.349716 # C
629 1 4.881585 46.338478 -31.349716 # C
630 1 4.881585 46.338478 31.349716 # C
631 1 31.349716 -4.881585 -46.338478 # C
632 1 31.349716 -4.881585 46.338478 # C
633 1 31.349716 4.881585 -46.338478 # C
634 1 -31.349716 -4.881585 -46.338478 # C
635 1 -46.273678 -4.935358 31.366499 # C
636 1 -46.273678 4.935358 -31.366499 # C
637 1 -46.273678 4.935358 31.366499 # C
638 1 -4.935358 -31.366499 -46.273678 # C
639 1 -4.935358 -31.366499 46.273678 # C
640 1 -4.935358 31.366499 -46.273678 # C
641 1 -4.935358 31.366499 46.273678 # C
642 1 -31.366499 -46.273678 -4.935358 # C
643 1 -31.366499 -46.273678 4.935358 # C
644 1 -31.366499 46.273678 -4.935358 # C
645 1 -31.366499 46.273678 4.935358 # C
646 1 31.366499 -46.273678 -4.935358 # C
647 1 31.366499 -46.273678 4.935358 # C
648 1 31.366499 46.273678 -4.935358 # C
649 1 31.366499 46.273678 4.935358 # C
650 1 4.935358 -31.366499 -46.273678 # C
651 1 4.935358 -31.366499 46.273678 # C
652 1 4.935358 31.366499 -46.273678 # C
653 1 4.935358 31.366499 46.273678 # C
654 1 46.273678 -4.935358 -31.366499 # C
655 1 46.273678 -4.935358 31.366499 # C
656 1 46.273678 4.935358 -31.366499 # C
657 1 -46.273678 -4.935358 -31.366499 # C
658 1 -33.470768 -19.600830 33.521420 # C
659 1 -33.470768 19.600830 -33.521420 # C
660 1 -33.470768 19.600830 33.521420 # C
661 1 -19.600830 -33.521420 -33.470768 # C
662 1 -19.600830 -33.521420 33.470768 # C
663 1 -19.600830 33.521420 -33.470768 # C
664 1 -19.600830 33.521420 33.470768 # C
665 1 -33.521420 -33.470768 -19.600830 # C
666 1 -33.521420 -33.470768 19.600830 # C
667 1 -33.521420 33.470768 -19.600830 # C
668 1 -33.521420 33.470768 19.600830 # C
669 1 33.521420 -33.470768 -19.600830 # C
670 1 33.521420 -33.470768 19.600830 # C
671 1 33.521420 33.470768 -19.600830 # C
672 1 33.521420 33.470768 19.600830 # C
673 1 19.600830 -33.521420 -33.470768 # C
674 1 19.600830 -33.521420 33.470768 # C
675 1 19.600830 33.521420 -33.470768 # C
676 1 19.600830 33.521420 33.470768 # C
677 1 33.470768 -19.600830 -33.521420 # C
678 1 33.470768 -19.600830 33.521420 # C
679 1 33.470768 19.600830 -33.521420 # C
680 1 -33.470768 -19.600830 -33.521420 # C
681 1 -25.387482 -18.067303 45.774845 # C
682 1 -25.387482 18.067303 -45.774845 # C
683 1 -25.387482 18.067303 45.774845 # C
684 1 -18.067303 -45.774845 -25.387482 # C
685 1 -18.067303 -45.774845 25.387482 # C
686 1 -18.067303 45.774845 -25.387482 # C
687 1 -18.067303 45.774845 25.387482 # C
688 1 -45.774845 -25.387482 -18.067303 # C
689 1 -45.774845 -25.387482 18.067303 # C
690 1 -45.774845 25.387482 -18.067303 # C
691 1 -45.774845 25.387482 18.067303 # C
692 1 45.774845 -25.387482 -18.067303 # C
693 1 45.774845 -25.387482 18.067303 # C
694 1 45.774845 25.387482 -18.067303 # C
695 1 45.774845 25.387482 18.067303 # C
696 1 18.067303 -45.774845 -25.387482 # C
697 1 18.067303 -45.774845 25.387482 # C
698 1 18.067303 45.774845 -25.387482 # C
699 1 18.067303 45.774845 25.387482 # C
700 1 25.387482 -18.067303 -45.774845 # C
701 1 25.387482 -18.067303 45.774845 # C
702 1 25.387482 18.067303 -45.774845 # C
703 1 -25.387482 -18.067303 -45.774845 # C
704 1 -18.159275 -25.352491 45.708542 # C
705 1 -18.159275 25.352491 -45.708542 # C
706 1 -18.159275 25.352491 45.708542 # C
707 1 -25.352491 -45.708542 -18.159275 # C
708 1 -25.352491 -45.708542 18.159275 # C
709 1 -25.352491 45.708542 -18.159275 # C
710 1 -25.352491 45.708542 18.159275 # C
711 1 -45.708542 -18.159275 -25.352491 # C
712 1 -45.708542 -18.159275 25.352491 # C
713 1 -45.708542 18.159275 -25.352491 # C
714 1 -45.708542 18.159275 25.352491 # C
715 1 45.708542 -18.159275 -25.352491 # C
716 1 45.708542 -18.159275 25.352491 # C
717 1 45.708542 18.159275 -25.352491 # C
718 1 45.708542 18.159275 25.352491 # C
719 1 25.352491 -45.708542 -18.159275 # C
720 1 25.352491 -45.708542 18.159275 # C
721 1 25.352491 45.708542 -18.159275 # C
722 1 25.352491 45.708542 18.159275 # C
723 1 18.159275 -25.352491 -45.708542 # C
724 1 18.159275 -25.352491 45.708542 # C
725 1 18.159275 25.352491 -45.708542 # C
726 1 -18.159275 -25.352491 -45.708542 # C
727 1 -20.494324 -20.458677 53.162212 # C
728 1 -20.494324 20.458677 -53.162212 # C
729 1 -20.494324 20.458677 53.162212 # C
730 1 -20.458677 -53.162212 -20.494324 # C
731 1 -20.458677 -53.162212 20.494324 # C
732 1 -20.458677 53.162212 -20.494324 # C
733 1 -20.458677 53.162212 20.494324 # C
734 1 -53.162212 -20.494324 -20.458677 # C
735 1 -53.162212 -20.494324 20.458677 # C
736 1 -53.162212 20.494324 -20.458677 # C
737 1 -53.162212 20.494324 20.458677 # C
738 1 53.162212 -20.494324 -20.458677 # C
739 1 53.162212 -20.494324 20.458677 # C