LAMMPS data file. CGCMM style. atom_style atomic generated by VMD/TopoTools v1.6 on Wed Oct 05 14:44:08 EDT 2016
 3072 atoms
 0 bonds
 0 angles
 0 dihedrals
 0 impropers
 1 atom types
 0 bond types
 0 angle types
 0 dihedral types
 0 improper types
 -29.10213 29.10213  xlo xhi
 -29.10213 29.10213  ylo yhi
 -29.10213 29.10213  zlo zhi

# Pair Coeffs
#
# 1  C

 Masses

 1 12.010700 # C

 Atoms

1 1 10.673896 10.643441 24.072622 # C
2 1 18.325663 4.926971 18.356180 # C
3 1 5.893629 13.330073 26.531191 # C
4 1 13.339488 5.856819 26.563133 # C
5 1 12.284270 12.253245 19.210756 # C
6 1 15.660087 2.436461 23.142820 # C
7 1 23.105915 2.468399 15.669529 # C
8 1 16.715294 9.788831 16.746338 # C
9 1 12.676130 9.018866 22.864006 # C
10 1 9.072373 12.656583 22.824108 # C
11 1 10.234804 10.215170 26.548758 # C
12 1 19.927179 6.175489 16.343016 # C
13 1 16.323437 6.135589 19.980749 # C
14 1 18.764751 2.450830 18.784473 # C
15 1 3.069612 14.171525 27.759359 # C
16 1 8.037360 11.877434 27.773947 # C
17 1 6.534342 13.751941 24.047403 # C
18 1 11.892228 8.011982 27.782583 # C
19 1 14.174455 3.040556 27.781853 # C
20 1 13.759814 6.474278 24.105192 # C
21 1 9.941894 13.475491 20.396965 # C
22 1 13.489614 9.888970 20.437670 # C
23 1 13.349712 13.337206 16.848373 # C
24 1 14.825122 1.217740 25.959061 # C
25 1 17.107340 1.217000 20.987675 # C
26 1 15.239759 4.894413 22.525347 # C
27 1 20.962181 1.225636 17.122198 # C
28 1 25.929939 1.240222 14.828059 # C
29 1 22.465204 4.952196 15.247647 # C
30 1 15.509957 8.561919 19.110622 # C
31 1 19.057659 8.602634 15.524091 # C
32 1 15.649855 12.151208 15.662370 # C
33 1 9.581190 11.400789 24.683901 # C
34 1 11.422641 9.547721 24.699934 # C
35 1 10.992024 10.956304 22.840349 # C
36 1 17.576920 4.299660 19.451910 # C
37 1 19.418364 4.315694 17.598831 # C
38 1 18.007536 6.159245 18.043304 # C
39 1 7.197540 12.762204 25.914183 # C
40 1 4.812092 13.944212 25.901495 # C
41 1 5.665733 13.257709 27.768732 # C
42 1 13.949819 4.763691 25.947693 # C
43 1 12.774629 7.160135 25.945820 # C
44 1 13.266712 5.637209 27.784573 # C
45 1 13.404738 11.606781 18.630499 # C
46 1 11.641228 13.389063 18.611258 # C
47 1 11.808639 11.772340 20.408478 # C
48 1 16.224941 3.053775 21.839506 # C
49 1 15.049756 3.051912 24.235937 # C
50 1 15.732865 1.215015 23.362432 # C
51 1 24.187456 3.098097 15.055376 # C
52 1 21.802006 3.085408 16.237406 # C
53 1 23.333807 1.230849 15.741898 # C
54 1 17.358332 10.388334 15.610515 # C
55 1 15.594832 10.369085 17.392799 # C
56 1 17.190924 8.591113 17.227249 # C
57 1 13.606808 8.180083 22.265165 # C
58 1 12.048479 10.205081 22.240034 # C
59 1 12.368421 8.674369 24.091633 # C
60 1 10.251774 12.020429 22.218250 # C
61 1 8.242068 13.596015 22.209736 # C
62 1 8.719917 12.349806 24.057484 # C
63 1 11.219207 9.319224 25.935715 # C
64 1 9.345532 11.201015 25.924255 # C
65 1 10.129136 10.108735 27.778433 # C
66 1 20.757481 6.789866 15.403571 # C
67 1 18.747782 6.781345 16.979170 # C
68 1 20.279634 4.942112 16.649801 # C
69 1 16.951084 6.759559 18.794525 # C
70 1 15.392764 6.734432 20.819525 # C
71 1 16.631145 4.907964 20.325258 # C
72 1 19.654018 3.075336 17.798616 # C
73 1 17.780354 3.063876 19.680418 # C
74 1 18.870417 1.221149 18.890917 # C
75 1 1.563645 14.396730 28.376286 # C
76 1 4.280940 13.768790 28.382650 # C
77 1 3.372868 14.274583 26.515749 # C
78 1 6.810889 12.613905 28.385658 # C
79 1 9.081110 11.018645 28.387861 # C
80 1 8.196115 11.953369 26.540014 # C
81 1 5.164661 14.169417 24.659883 # C
82 1 7.485685 12.958868 24.672009 # C
83 1 6.938269 14.082312 22.818506 # C
84 1 11.038194 9.056171 28.390146 # C
85 1 12.626509 6.783907 28.392014 # C
86 1 11.967573 8.168600 26.557829 # C
87 1 13.774624 4.256534 28.392134 # C
88 1 14.397368 1.545762 28.389294 # C
89 1 14.276875 3.328104 26.558849 # C
90 1 12.972042 7.437407 24.715405 # C
91 1 14.499787 4.490344 24.509275 # C
92 1 14.086870 6.872457 22.882580 # C
93 1 8.695539 14.013491 20.999063 # C
94 1 10.667823 12.421861 21.001780 # C
95 1 10.439667 13.961787 19.204165 # C
96 1 12.449045 10.619684 21.024633 # C
97 1 14.499785 8.039053 20.960546 # C
98 1 13.969676 10.395161 19.241255 # C
99 1 12.176559 13.927063 17.431669 # C
100 1 14.499784 11.569010 17.430571 # C
101 1 13.914650 13.909930 15.674782 # C
102 1 14.602209 0.610292 27.453835 # C
103 1 15.224955 0.607448 24.743095 # C
104 1 14.722701 2.440757 25.671515 # C
105 1 16.373066 0.607567 22.215746 # C
106 1 17.961365 0.609433 19.943487 # C
107 1 17.031994 2.441762 20.831047 # C
108 1 14.499787 5.102306 23.897310 # C
109 1 16.027529 4.284194 21.562225 # C
110 1 14.912704 6.117025 22.127155 # C
111 1 19.918432 0.611716 17.981003 # C
112 1 22.188646 0.613920 16.385717 # C
113 1 20.803431 2.459574 17.046257 # C
114 1 24.718601 0.616929 15.230806 # C
115 1 21.513865 4.327588 16.040735 # C
116 1 14.499785 8.643913 20.355680 # C
117 1 16.550522 7.974956 18.379911 # C
118 1 15.029897 9.758329 18.604424 # C
119 1 18.331734 7.997815 16.577728 # C
120 1 14.499784 12.163617 16.835962 # C
121 1 -10.673896 -10.643441 24.072622 # C
122 1 -10.673896 10.643441 -24.072622 # C
123 1 -10.673896 10.643441 24.072622 # C
124 1 -10.643441 -24.072622 -10.673896 # C
125 1 -10.643441 -24.072622 10.673896 # C
126 1 -10.643441 24.072622 -10.673896 # C
127 1 -10.643441 24.072622 10.673896 # C
128 1 -24.072622 -10.673896 -10.643441 # C
129 1 -24.072622 -10.673896 10.643441 # C
130 1 -24.072622 10.673896 -10.643441 # C
131 1 -24.072622 10.673896 10.643441 # C
132 1 24.072622 -10.673896 -10.643441 # C
133 1 24.072622 -10.673896 10.643441 # C
134 1 24.072622 10.673896 -10.643441 # C
135 1 24.072622 10.673896 10.643441 # C
136 1 10.643441 -24.072622 -10.673896 # C
137 1 10.643441 -24.072622 10.673896 # C
138 1 10.643441 24.072622 -10.673896 # C
139 1 10.643441 24.072622 10.673896 # C
140 1 10.673896 -10.643441 -24.072622 # C
141 1 10.673896 -10.643441 24.072622 # C
142 1 10.673896 10.643441 -24.072622 # C
143 1 -10.673896 -10.643441 -24.072622 # C
144 1 -18.325663 -4.926971 18.356180 # C
145 1 -18.325663 4.926971 -18.356180 # C
146 1 -18.325663 4.926971 18.356180 # C
147 1 -4.926971 -18.356180 -18.325663 # C
148 1 -4.926971 -18.356180 18.325663 # C
149 1 -4.926971 18.356180 -18.325663 # C
150 1 -4.926971 18.356180 18.325663 # C
151 1 -18.356180 -18.325663 -4.926971 # C
152 1 -18.356180 -18.325663 4.926971 # C
153 1 -18.356180 18.325663 -4.926971 # C
154 1 -18.356180 18.325663 4.926971 # C
155 1 18.356180 -18.325663 -4.926971 # C
156 1 18.356180 -18.325663 4.926971 # C
157 1 18.356180 18.325663 -4.926971 # C
158 1 18.356180 18.325663 4.926971 # C
159 1 4.926971 -18.356180 -18.325663 # C
160 1 4.926971 -18.356180 18.325663 # C
161 1 4.926971 18.356180 -18.325663 # C
162 1 4.926971 18.356180 18.325663 # C
163 1 18.325663 -4.926971 -18.356180 # C
164 1 18.325663 -4.926971 18.356180 # C
165 1 18.325663 4.926971 -18.356180 # C
166 1 -18.325663 -4.926971 -18.356180 # C
167 1 -5.893629 -13.330073 26.531191 # C
168 1 -5.893629 13.330073 -26.531191 # C
169 1 -5.893629 13.330073 26.531191 # C
170 1 -13.330073 -26.531191 -5.893629 # C
171 1 -13.330073 -26.531191 5.893629 # C
172 1 -13.330073 26.531191 -5.893629 # C
173 1 -13.330073 26.531191 5.893629 # C
174 1 -26.531191 -5.893629 -13.330073 # C
175 1 -26.531191 -5.893629 13.330073 # C
176 1 -26.531191 5.893629 -13.330073 # C
177 1 -26.531191 5.893629 13.330073 # C
178 1 26.531191 -5.893629 -13.330073 # C
179 1 26.531191 -5.893629 13.330073 # C
180 1 26.531191 5.893629 -13.330073 # C
181 1 26.531191 5.893629 13.330073 # C
182 1 13.330073 -26.531191 -5.893629 # C
183 1 13.330073 -26.531191 5.893629 # C
184 1 13.330073 26.531191 -5.893629 # C
185 1 13.330073 26.531191 5.893629 # C
186 1 5.893629 -13.330073 -26.531191 # C
187 1 5.893629 -13.330073 26.531191 # C
188 1 5.893629 13.330073 -26.531191 # C
189 1 -5.893629 -13.330073 -26.531191 # C
190 1 -13.339488 -5.856819 26.563133 # C
191 1 -13.339488 5.856819 -26.563133 # C
192 1 -13.339488 5.856819 26.563133 # C
193 1 -5.856819 -26.563133 -13.339488 # C
194 1 -5.856819 -26.563133 13.339488 # C
195 1 -5.856819 26.563133 -13.339488 # C
196 1 -5.856819 26.563133 13.339488 # C
197 1 -26.563133 -13.339488 -5.856819 # C
198 1 -26.563133 -13.339488 5.856819 # C
199 1 -26.563133 13.339488 -5.856819 # C
200 1 -26.563133 13.339488 5.856819 # C
201 1 26.563133 -13.339488 -5.856819 # C
202 1 26.563133 -13.339488 5.856819 # C
203 1 26.563133 13.339488 -5.856819 # C
204 1 26.563133 13.339488 5.856819 # C
205 1 5.856819 -26.563133 -13.339488 # C
206 1 5.856819 -26.563133 13.339488 # C
207 1 5.856819 26.563133 -13.339488 # C
208 1 5.856819 26.563133 13.339488 # C
209 1 13.339488 -5.856819 -26.563133 # C
210 1 13.339488 -5.856819 26.563133 # C
211 1 13.339488 5.856819 -26.563133 # C
212 1 -13.339488 -5.856819 -26.563133 # C
213 1 -12.284270 -12.253245 19.210756 # C
214 1 -12.284270 12.253245 -19.210756 # C
215 1 -12.284270 12.253245 19.210756 # C
216 1 -12.253245 -19.210756 -12.284270 # C
217 1 -12.253245 -19.210756 12.284270 # C
218 1 -12.253245 19.210756 -12.284270 # C
219 1 -12.253245 19.210756 12.284270 # C
220 1 -19.210756 -12.284270 -12.253245 # C
221 1 -19.210756 -12.284270 12.253245 # C
222 1 -19.210756 12.284270 -12.253245 # C
223 1 -19.210756 12.284270 12.253245 # C
224 1 19.210756 -12.284270 -12.253245 # C
225 1 19.210756 -12.284270 12.253245 # C
226 1 19.210756 12.284270 -12.253245 # C
227 1 19.210756 12.284270 12.253245 # C
228 1 12.253245 -19.210756 -12.284270 # C
229 1 12.253245 -19.210756 12.284270 # C
230 1 12.253245 19.210756 -12.284270 # C
231 1 12.253245 19.210756 12.284270 # C
232 1 12.284270 -12.253245 -19.210756 # C
233 1 12.284270 -12.253245 19.210756 # C
234 1 12.284270 12.253245 -19.210756 # C
235 1 -12.284270 -12.253245 -19.210756 # C
236 1 -15.660087 -2.436461 23.142820 # C
237 1 -15.660087 2.436461 -23.142820 # C
238 1 -15.660087 2.436461 23.142820 # C
239 1 -2.436461 -23.142820 -15.660087 # C
240 1 -2.436461 -23.142820 15.660087 # C
241 1 -2.436461 23.142820 -15.660087 # C
242 1 -2.436461 23.142820 15.660087 # C
243 1 -23.142820 -15.660087 -2.436461 # C
244 1 -23.142820 -15.660087 2.436461 # C
245 1 -23.142820 15.660087 -2.436461 # C
246 1 -23.142820 15.660087 2.436461 # C
247 1 23.142820 -15.660087 -2.436461 # C
248 1 23.142820 -15.660087 2.436461 # C
249 1 23.142820 15.660087 -2.436461 # C
250 1 23.142820 15.660087 2.436461 # C
251 1 2.436461 -23.142820 -15.660087 # C
252 1 2.436461 -23.142820 15.660087 # C
253 1 2.436461 23.142820 -15.660087 # C
254 1 2.436461 23.142820 15.660087 # C
255 1 15.660087 -2.436461 -23.142820 # C
256 1 15.660087 -2.436461 23.142820 # C
257 1 15.660087 2.436461 -23.142820 # C
258 1 -15.660087 -2.436461 -23.142820 # C
259 1 -23.105915 -2.468399 15.669529 # C
260 1 -23.105915 2.468399 -15.669529 # C
261 1 -23.105915 2.468399 15.669529 # C
262 1 -2.468399 -15.669529 -23.105915 # C
263 1 -2.468399 -15.669529 23.105915 # C
264 1 -2.468399 15.669529 -23.105915 # C
265 1 -2.468399 15.669529 23.105915 # C
266 1 -15.669529 -23.105915 -2.468399 # C
267 1 -15.669529 -23.105915 2.468399 # C
268 1 -15.669529 23.105915 -2.468399 # C
269 1 -15.669529 23.105915 2.468399 # C
270 1 15.669529 -23.105915 -2.468399 # C
271 1 15.669529 -23.105915 2.468399 # C
272 1 15.669529 23.105915 -2.468399 # C
273 1 15.669529 23.105915 2.468399 # C
274 1 2.468399 -15.669529 -23.105915 # C
275 1 2.468399 -15.669529 23.105915 # C
276 1 2.468399 15.669529 -23.105915 # C
277 1 2.468399 15.669529 23.105915 # C
278 1 23.105915 -2.468399 -15.669529 # C
279 1 23.105915 -2.468399 15.669529 # C
280 1 23.105915 2.468399 -15.669529 # C
281 1 -23.105915 -2.468399 -15.669529 # C
282 1 -16.715294 -9.788831 16.746338 # C
283 1 -16.715294 9.788831 -16.746338 # C
284 1 -16.715294 9.788831 16.746338 # C
285 1 -9.788831 -16.746338 -16.715294 # C
286 1 -9.788831 -16.746338 16.715294 # C
287 1 -9.788831 16.746338 -16.715294 # C
288 1 -9.788831 16.746338 16.715294 # C
289 1 -16.746338 -16.715294 -9.788831 # C
290 1 -16.746338 -16.715294 9.788831 # C
291 1 -16.746338 16.715294 -9.788831 # C
292 1 -16.746338 16.715294 9.788831 # C
293 1 16.746338 -16.715294 -9.788831 # C
294 1 16.746338 -16.715294 9.788831 # C
295 1 16.746338 16.715294 -9.788831 # C
296 1 16.746338 16.715294 9.788831 # C
297 1 9.788831 -16.746338 -16.715294 # C
298 1 9.788831 -16.746338 16.715294 # C
299 1 9.788831 16.746338 -16.715294 # C
300 1 9.788831 16.746338 16.715294 # C
301 1 16.715294 -9.788831 -16.746338 # C
302 1 16.715294 -9.788831 16.746338 # C
303 1 16.715294 9.788831 -16.746338 # C
304 1 -16.715294 -9.788831 -16.746338 # C
305 1 -12.676130 -9.018866 22.864006 # C
306 1 -12.676130 9.018866 -22.864006 # C
307 1 -12.676130 9.018866 22.864006 # C
308 1 -9.018866 -22.864006 -12.676130 # C
309 1 -9.018866 -22.864006 12.676130 # C
310 1 -9.018866 22.864006 -12.676130 # C
311 1 -9.018866 22.864006 12.676130 # C
312 1 -22.864006 -12.676130 -9.018866 # C
313 1 -22.864006 -12.676130 9.018866 # C
314 1 -22.864006 12.676130 -9.018866 # C
315 1 -22.864006 12.676130 9.018866 # C
316 1 22.864006 -12.676130 -9.018866 # C
317 1 22.864006 -12.676130 9.018866 # C
318 1 22.864006 12.676130 -9.018866 # C
319 1 22.864006 12.676130 9.018866 # C
320 1 9.018866 -22.864006 -12.676130 # C
321 1 9.018866 -22.864006 12.676130 # C
322 1 9.018866 22.864006 -12.676130 # C
323 1 9.018866 22.864006 12.676130 # C
324 1 12.676130 -9.018866 -22.864006 # C
325 1 12.676130 -9.018866 22.864006 # C
326 1 12.676130 9.018866 -22.864006 # C
327 1 -12.676130 -9.018866 -22.864006 # C
328 1 -9.072373 -12.656583 22.824108 # C
329 1 -9.072373 12.656583 -22.824108 # C
330 1 -9.072373 12.656583 22.824108 # C
331 1 -12.656583 -22.824108 -9.072373 # C
332 1 -12.656583 -22.824108 9.072373 # C
333 1 -12.656583 22.824108 -9.072373 # C
334 1 -12.656583 22.824108 9.072373 # C
335 1 -22.824108 -9.072373 -12.656583 # C
336 1 -22.824108 -9.072373 12.656583 # C
337 1 -22.824108 9.072373 -12.656583 # C
338 1 -22.824108 9.072373 12.656583 # C
339 1 22.824108 -9.072373 -12.656583 # C
340 1 22.824108 -9.072373 12.656583 # C
341 1 22.824108 9.072373 -12.656583 # C
342 1 22.824108 9.072373 12.656583 # C
343 1 12.656583 -22.824108 -9.072373 # C
344 1 12.656583 -22.824108 9.072373 # C
345 1 12.656583 22.824108 -9.072373 # C
346 1 12.656583 22.824108 9.072373 # C
347 1 9.072373 -12.656583 -22.824108 # C
348 1 9.072373 -12.656583 22.824108 # C
349 1 9.072373 12.656583 -22.824108 # C
350 1 -9.072373 -12.656583 -22.824108 # C
351 1 -10.234804 -10.215170 26.548758 # C
352 1 -10.234804 10.215170 -26.548758 # C
353 1 -10.234804 10.215170 26.548758 # C
354 1 -10.215170 -26.548758 -10.234804 # C
355 1 -10.215170 -26.548758 10.234804 # C
356 1 -10.215170 26.548758 -10.234804 # C
357 1 -10.215170 26.548758 10.234804 # C
358 1 -26.548758 -10.234804 -10.215170 # C
359 1 -26.548758 -10.234804 10.215170 # C
360 1 -26.548758 10.234804 -10.215170 # C
361 1 -26.548758 10.234804 10.215170 # C
362 1 26.548758 -10.234804 -10.215170 # C
363 1 26.548758 -10.234804 10.215170 # C
364 1 26.548758 10.234804 -10.215170 # C
365 1 26.548758 10.234804 10.215170 # C
366 1 10.215170 -26.548758 -10.234804 # C
367 1 10.215170 -26.548758 10.234804 # C
368 1 10.215170 26.548758 -10.234804 # C
369 1 10.215170 26.548758 10.234804 # C
370 1 10.234804 -10.215170 -26.548758 # C
371 1 10.234804 -10.215170 26.548758 # C
372 1 10.234804 10.215170 -26.548758 # C
373 1 -10.234804 -10.215170 -26.548758 # C
374 1 -19.927179 -6.175489 16.343016 # C
375 1 -19.927179 6.175489 -16.343016 # C
376 1 -19.927179 6.175489 16.343016 # C
377 1 -6.175489 -16.343016 -19.927179 # C
378 1 -6.175489 -16.343016 19.927179 # C
379 1 -6.175489 16.343016 -19.927179 # C
380 1 -6.175489 16.343016 19.927179 # C
381 1 -16.343016 -19.927179 -6.175489 # C
382 1 -16.343016 -19.927179 6.175489 # C
383 1 -16.343016 19.927179 -6.175489 # C
384 1 -16.343016 19.927179 6.175489 # C
385 1 16.343016 -19.927179 -6.175489 # C
386 1 16.343016 -19.927179 6.175489 # C
387 1 16.343016 19.927179 -6.175489 # C
388 1 16.343016 19.927179 6.175489 # C
389 1 6.175489 -16.343016 -19.927179 # C
390 1 6.175489 -16.343016 19.927179 # C
391 1 6.175489 16.343016 -19.927179 # C
392 1 6.175489 16.343016 19.927179 # C
393 1 19.927179 -6.175489 -16.343016 # C
394 1 19.927179 -6.175489 16.343016 # C
395 1 19.927179 6.175489 -16.343016 # C
396 1 -19.927179 -6.175489 -16.343016 # C
397 1 -16.323437 -6.135589 19.980749 # C
398 1 -16.323437 6.135589 -19.980749 # C
399 1 -16.323437 6.135589 19.980749 # C
400 1 -6.135589 -19.980749 -16.323437 # C
401 1 -6.135589 -19.980749 16.323437 # C
402 1 -6.135589 19.980749 -16.323437 # C
403 1 -6.135589 19.980749 16.323437 # C
404 1 -19.980749 -16.323437 -6.135589 # C
405 1 -19.980749 -16.323437 6.135589 # C
406 1 -19.980749 16.323437 -6.135589 # C
407 1 -19.980749 16.323437 6.135589 # C
408 1 19.980749 -16.323437 -6.135589 # C
409 1 19.980749 -16.323437 6.135589 # C
410 1 19.980749 16.323437 -6.135589 # C
411 1 19.980749 16.323437 6.135589 # C
412 1 6.135589 -19.980749 -16.323437 # C
413 1 6.135589 -19.980749 16.323437 # C
414 1 6.135589 19.980749 -16.323437 # C
415 1 6.135589 19.980749 16.323437 # C
416 1 16.323437 -6.135589 -19.980749 # C
417 1 16.323437 -6.135589 19.980749 # C
418 1 16.323437 6.135589 -19.980749 # C
419 1 -16.323437 -6.135589 -19.980749 # C
420 1 -18.764751 -2.450830 18.784473 # C
421 1 -18.764751 2.450830 -18.784473 # C
422 1 -18.764751 2.450830 18.784473 # C
423 1 -2.450830 -18.784473 -18.764751 # C
424 1 -2.450830 -18.784473 18.764751 # C
425 1 -2.450830 18.784473 -18.764751 # C
426 1 -2.450830 18.784473 18.764751 # C
427 1 -18.784473 -18.764751 -2.450830 # C
428 1 -18.784473 -18.764751 2.450830 # C
429 1 -18.784473 18.764751 -2.450830 # C
430 1 -18.784473 18.764751 2.450830 # C
431 1 18.784473 -18.764751 -2.450830 # C
432 1 18.784473 -18.764751 2.450830 # C
433 1 18.784473 18.764751 -2.450830 # C
434 1 18.784473 18.764751 2.450830 # C
435 1 2.450830 -18.784473 -18.764751 # C
436 1 2.450830 -18.784473 18.764751 # C
437 1 2.450830 18.784473 -18.764751 # C
438 1 2.450830 18.784473 18.764751 # C
439 1 18.764751 -2.450830 -18.784473 # C
440 1 18.764751 -2.450830 18.784473 # C
441 1 18.764751 2.450830 -18.784473 # C
442 1 -18.764751 -2.450830 -18.784473 # C
443 1 -3.069614 -14.171525 27.759357 # C
444 1 -3.069614 14.171525 -27.759357 # C
445 1 -3.069614 14.171525 27.759357 # C
446 1 -14.171525 -27.759357 -3.069614 # C
447 1 -14.171525 -27.759357 3.069614 # C
448 1 -14.171525 27.759357 -3.069614 # C
449 1 -14.171525 27.759357 3.069614 # C
450 1 -27.759357 -3.069614 -14.171525 # C
451 1 -27.759357 -3.069614 14.171525 # C
452 1 -27.759357 3.069614 -14.171525 # C
453 1 -27.759357 3.069614 14.171525 # C
454 1 27.759357 -3.069614 -14.171525 # C
455 1 27.759357 -3.069614 14.171525 # C
456 1 27.759357 3.069614 -14.171525 # C
457 1 27.759356 3.069616 14.171525 # C
458 1 14.171525 -27.759357 -3.069614 # C
459 1 14.171525 -27.759357 3.069614 # C
460 1 14.171525 27.759357 -3.069614 # C
461 1 14.171525 27.759357 3.069614 # C
462 1 3.069614 -14.171525 -27.759357 # C
463 1 3.069614 -14.171525 27.759357 # C
464 1 3.069614 14.171525 -27.759357 # C
465 1 -3.069614 -14.171525 -27.759357 # C
466 1 -8.037360 -11.877434 27.773947 # C
467 1 -8.037360 11.877434 -27.773947 # C
468 1 -8.037360 11.877434 27.773947 # C
469 1 -11.877434 -27.773947 -8.037360 # C
470 1 -11.877434 -27.773947 8.037360 # C
471 1 -11.877434 27.773947 -8.037360 # C
472 1 -11.877434 27.773947 8.037360 # C
473 1 -27.773947 -8.037360 -11.877434 # C
474 1 -27.773947 -8.037360 11.877434 # C
475 1 -27.773947 8.037360 -11.877434 # C
476 1 -27.773947 8.037360 11.877434 # C
477 1 27.773947 -8.037360 -11.877434 # C
478 1 27.773947 -8.037360 11.877434 # C
479 1 27.773947 8.037360 -11.877434 # C
480 1 27.773947 8.037360 11.877434 # C
481 1 11.877434 -27.773947 -8.037360 # C
482 1 11.877434 -27.773947 8.037360 # C
483 1 11.877434 27.773947 -8.037360 # C
484 1 11.877434 27.773947 8.037360 # C
485 1 8.037360 -11.877434 -27.773947 # C
486 1 8.037360 -11.877434 27.773947 # C
487 1 8.037360 11.877434 -27.773947 # C
488 1 -8.037360 -11.877434 -27.773947 # C
489 1 -6.534347 -13.751941 24.047400 # C
490 1 -6.534347 13.751941 -24.047400 # C
491 1 -6.534347 13.751941 24.047400 # C
492 1 -13.751941 -24.047400 -6.534347 # C
493 1 -13.751941 -24.047400 6.534347 # C
494 1 -13.751941 24.047400 -6.534347 # C
495 1 -13.751941 24.047400 6.534347 # C
496 1 -24.047400 -6.534347 -13.751941 # C
497 1 -24.047400 -6.534347 13.751941 # C
498 1 -24.047400 6.534347 -13.751941 # C
499 1 -24.047400 6.534347 13.751941 # C
500 1 24.047400 -6.534347 -13.751941 # C
501 1 24.047400 -6.534347 13.751941 # C
502 1 24.047400 6.534347 -13.751941 # C
503 1 24.047394 6.534352 13.751941 # C
504 1 13.751941 -24.047400 -6.534347 # C
505 1 13.751941 -24.047400 6.534347 # C
506 1 13.751941 24.047400 -6.534347 # C
507 1 13.751941 24.047400 6.534347 # C
508 1 6.534347 -13.751941 -24.047400 # C
509 1 6.534347 -13.751941 24.047400 # C
510 1 6.534347 13.751941 -24.047400 # C
511 1 -6.534347 -13.751941 -24.047400 # C
512 1 -11.892228 -8.011982 27.782583 # C
513 1 -11.892228 8.011982 -27.782583 # C
514 1 -11.892228 8.011982 27.782583 # C
515 1 -8.011982 -27.782583 -11.892228 # C
516 1 -8.011982 -27.782583 11.892228 # C
517 1 -8.011982 27.782583 -11.892228 # C
518 1 -8.011982 27.782583 11.892228 # C
519 1 -27.782583 -11.892228 -8.011982 # C
520 1 -27.782583 -11.892228 8.011982 # C
521 1 -27.782583 11.892228 -8.011982 # C
522 1 -27.782583 11.892228 8.011982 # C
523 1 27.782583 -11.892228 -8.011982 # C
524 1 27.782583 -11.892228 8.011982 # C
525 1 27.782583 11.892228 -8.011982 # C
526 1 27.782583 11.892228 8.011982 # C
527 1 8.011982 -27.782583 -11.892228 # C
528 1 8.011982 -27.782583 11.892228 # C
529 1 8.011982 27.782583 -11.892228 # C
530 1 8.011982 27.782583 11.892228 # C
531 1 11.892228 -8.011982 -27.782583 # C
532 1 11.892228 -8.011982 27.782583 # C
533 1 11.892228 8.011982 -27.782583 # C
534 1 -11.892228 -8.011982 -27.782583 # C
535 1 -14.174455 -3.040556 27.781853 # C
536 1 -14.174455 3.040556 -27.781853 # C
537 1 -14.174455 3.040556 27.781853 # C
538 1 -3.040556 -27.781853 -14.174455 # C
539 1 -3.040556 -27.781853 14.174455 # C
540 1 -3.040556 27.781853 -14.174455 # C
541 1 -3.040556 27.781853 14.174455 # C
542 1 -27.781853 -14.174455 -3.040556 # C
543 1 -27.781853 -14.174455 3.040556 # C
544 1 -27.781853 14.174455 -3.040556 # C
545 1 -27.781853 14.174455 3.040556 # C
546 1 27.781853 -14.174455 -3.040556 # C
547 1 27.781853 -14.174455 3.040556 # C
548 1 27.781853 14.174455 -3.040556 # C
549 1 27.781853 14.174455 3.040556 # C
550 1 3.040556 -27.781853 -14.174455 # C
551 1 3.040556 -27.781853 14.174455 # C
552 1 3.040556 27.781853 -14.174455 # C
553 1 3.040556 27.781853 14.174455 # C
554 1 14.174455 -3.040556 -27.781853 # C
555 1 14.174455 -3.040556 27.781853 # C
556 1 14.174455 3.040556 -27.781853 # C
557 1 -14.174455 -3.040556 -27.781853 # C
558 1 -13.759814 -6.474278 24.105192 # C
559 1 -13.759814 6.474278 -24.105192 # C
560 1 -13.759814 6.474278 24.105192 # C
561 1 -6.474278 -24.105192 -13.759814 # C
562 1 -6.474278 -24.105192 13.759814 # C
563 1 -6.474278 24.105192 -13.759814 # C
564 1 -6.474278 24.105192 13.759814 # C
565 1 -24.105192 -13.759814 -6.474278 # C
566 1 -24.105192 -13.759814 6.474278 # C
567 1 -24.105192 13.759814 -6.474278 # C
568 1 -24.105192 13.759814 6.474278 # C
569 1 24.105192 -13.759814 -6.474278 # C
570 1 24.105192 -13.759814 6.474278 # C
571 1 24.105192 13.759814 -6.474278 # C
572 1 24.105192 13.759814 6.474278 # C
573 1 6.474278 -24.105192 -13.759814 # C
574 1 6.474278 -24.105192 13.759814 # C
575 1 6.474278 24.105192 -13.759814 # C
576 1 6.474278 24.105192 13.759814 # C
577 1 13.759814 -6.474278 -24.105192 # C
578 1 13.759814 -6.474278 24.105192 # C
579 1 13.759814 6.474278 -24.105192 # C
580 1 -13.759814 -6.474278 -24.105192 # C
581 1 -9.941898 -13.475491 20.396959 # C
582 1 -9.941898 13.475491 -20.396959 # C
583 1 -9.941898 13.475491 20.396959 # C
584 1 -13.475491 -20.396959 -9.941898 # C
585 1 -13.475491 -20.396959 9.941898 # C
586 1 -13.475491 20.396959 -9.941898 # C
587 1 -13.475491 20.396959 9.941898 # C
588 1 -20.396959 -9.941898 -13.475491 # C
589 1 -20.396959 -9.941898 13.475491 # C
590 1 -20.396959 9.941898 -13.475491 # C
591 1 -20.396959 9.941898 13.475491 # C
592 1 20.396959 -9.941898 -13.475491 # C
593 1 20.396959 -9.941898 13.475491 # C
594 1 20.396959 9.941898 -13.475491 # C
595 1 20.396955 9.941903 13.475491 # C
596 1 13.475491 -20.396959 -9.941898 # C
597 1 13.475491 -20.396959 9.941898 # C
598 1 13.475491 20.396959 -9.941898 # C
599 1 13.475491 20.396959 9.941898 # C
600 1 9.941898 -13.475491 -20.396959 # C
601 1 9.941898 -13.475491 20.396959 # C
602 1 9.941898 13.475491 -20.396959 # C
603 1 -9.941898 -13.475491 -20.396959 # C
604 1 -13.489614 -9.888970 20.437670 # C
605 1 -13.489614 9.888970 -20.437670 # C
606 1 -13.489614 9.888970 20.437670 # C
607 1 -9.888970 -20.437670 -13.489614 # C
608 1 -9.888970 -20.437670 13.489614 # C
609 1 -9.888970 20.437670 -13.489614 # C
610 1 -9.888970 20.437670 13.489614 # C
611 1 -20.437670 -13.489614 -9.888970 # C
612 1 -20.437670 -13.489614 9.888970 # C
613 1 -20.437670 13.489614 -9.888970 # C
614 1 -20.437670 13.489614 9.888970 # C
615 1 20.437670 -13.489614 -9.888970 # C
616 1 20.437670 -13.489614 9.888970 # C
617 1 20.437670 13.489614 -9.888970 # C
618 1 20.437670 13.489614 9.888970 # C
619 1 9.888970 -20.437670 -13.489614 # C
620 1 9.888970 -20.437670 13.489614 # C
621 1 9.888970 20.437670 -13.489614 # C
622 1 9.888970 20.437670 13.489614 # C
623 1 13.489614 -9.888970 -20.437670 # C
624 1 13.489614 -9.888970 20.437670 # C
625 1 13.489614 9.888970 -20.437670 # C
626 1 -13.489614 -9.888970 -20.437670 # C
627 1 -13.349714 -13.337206 16.848372 # C
628 1 -13.349714 13.337206 -16.848372 # C
629 1 -13.349714 13.337206 16.848372 # C
630 1 -13.337206 -16.848372 -13.349714 # C
631 1 -13.337206 -16.848372 13.349714 # C
632 1 -13.337206 16.848372 -13.349714 # C
633 1 -13.337206 16.848372 13.349714 # C
634 1 -16.848372 -13.349714 -13.337206 # C
635 1 -16.848372 -13.349714 13.337206 # C
636 1 -16.848372 13.349714 -13.337206 # C
637 1 -16.848372 13.349714 13.337206 # C
638 1 16.848372 -13.349714 -13.337206 # C
639 1 16.848372 -13.349714 13.337206 # C
640 1 16.848372 13.349714 -13.337206 # C
641 1 16.848370 13.349716 13.337206 # C
642 1 13.337206 -16.848372 -13.349714 # C
643 1 13.337206 -16.848372 13.349714 # C
644 1 13.337206 16.848372 -13.349714 # C
645 1 13.337206 16.848372 13.349714 # C
646 1 13.349714 -13.337206 -16.848372 # C
647 1 13.349714 -13.337206 16.848372 # C
648 1 13.349714 13.337206 -16.848372 # C
649 1 -13.349714 -13.337206 -16.848372 # C
650 1 -14.825122 -1.217740 25.959061 # C
651 1 -14.825122 1.217740 -25.959061 # C
652 1 -14.825122 1.217740 25.959061 # C
653 1 -1.217740 -25.959061 -14.825122 # C
654 1 -1.217740 -25.959061 14.825122 # C
655 1 -1.217740 25.959061 -14.825122 # C
656 1 -1.217740 25.959061 14.825122 # C
657 1 -25.959061 -14.825122 -1.217740 # C
658 1 -25.959061 -14.825122 1.217740 # C
659 1 -25.959061 14.825122 -1.217740 # C
660 1 -25.959061 14.825122 1.217740 # C
661 1 25.959061 -14.825122 -1.217740 # C
662 1 25.959061 -14.825122 1.217740 # C
663 1 25.959061 14.825122 -1.217740 # C
664 1 25.959061 14.825122 1.217740 # C
665 1 1.217740 -25.959061 -14.825122 # C
666 1 1.217740 -25.959061 14.825122 # C
667 1 1.217740 25.959061 -14.825122 # C
668 1 1.217740 25.959061 14.825122 # C
669 1 14.825122 -1.217740 -25.959061 # C
670 1 14.825122 -1.217740 25.959061 # C
671 1 14.825122 1.217740 -25.959061 # C
672 1 -14.825122 -1.217740 -25.959061 # C
673 1 -17.107340 -1.217000 20.987675 # C
674 1 -17.107340 1.217000 -20.987675 # C
675 1 -17.107340 1.217000 20.987675 # C
676 1 -1.217000 -20.987675 -17.107340 # C
677 1 -1.217000 -20.987675 17.107340 # C
678 1 -1.217000 20.987675 -17.107340 # C
679 1 -1.217000 20.987675 17.107340 # C
680 1 -20.987675 -17.107340 -1.217000 # C
681 1 -20.987675 -17.107340 1.217000 # C
682 1 -20.987675 17.107340 -1.217000 # C
683 1 -20.987675 17.107340 1.217000 # C
684 1 20.987675 -17.107340 -1.217000 # C
685 1 20.987675 -17.107340 1.217000 # C
686 1 20.987675 17.107340 -1.217000 # C
687 1 20.987675 17.107340 1.217000 # C
688 1 1.217000 -20.987675 -17.107340 # C
689 1 1.217000 -20.987675 17.107340 # C
690 1 1.217000 20.987675 -17.107340 # C
691 1 1.217000 20.987675 17.107340 # C
692 1 17.107340 -1.217000 -20.987675 # C
693 1 17.107340 -1.217000 20.987675 # C
694 1 17.107340 1.217000 -20.987675 # C
695 1 -17.107340 -1.217000 -20.987675 # C
696 1 -15.239759 -4.894413 22.525347 # C
697 1 -15.239759 4.894413 -22.525347 # C
698 1 -15.239759 4.894413 22.525347 # C
699 1 -4.894413 -22.525347 -15.239759 # C
700 1 -4.894413 -22.525347 15.239759 # C
701 1 -4.894413 22.525347 -15.239759 # C
702 1 -4.894413 22.525347 15.239759 # C
703 1 -22.525347 -15.239759 -4.894413 # C
704 1 -22.525347 -15.239759 4.894413 # C
705 1 -22.525347 15.239759 -4.894413 # C
706 1 -22.525347 15.239759 4.894413 # C
707 1 22.525347 -15.239759 -4.894413 # C
708 1 22.525347 -15.239759 4.894413 # C
709 1 22.525347 15.239759 -4.894413 # C
710 1 22.525347 15.239759 4.894413 # C
711 1 4.894413 -22.525347 -15.239759 # C
712 1 4.894413 -22.525347 15.239759 # C
713 1 4.894413 22.525347 -15.239759 # C
714 1 4.894413 22.525347 15.239759 # C
715 1 15.239759 -4.894413 -22.525347 # C
716 1 15.239759 -4.894413 22.525347 # C
717 1 15.239759 4.894413 -22.525347 # C
718 1 -15.239759 -4.894413 -22.525347 # C
719 1 -20.962181 -1.225636 17.122198 # C
720 1 -20.962181 1.225636 -17.122198 # C
721 1 -20.962181 1.225636 17.122198 # C
722 1 -1.225636 -17.122198 -20.962181 # C
723 1 -1.225636 -17.122198 20.962181 # C
724 1 -1.225636 17.122198 -20.962181 # C
725 1 -1.225636 17.122198 20.962181 # C
726 1 -17.122198 -20.962181 -1.225636 # C
727 1 -17.122198 -20.962181 1.225636 # C
728 1 -17.122198 20.962181 -1.225636 # C
729 1 -17.122198 20.962181 1.225636 # C
730 1 17.122198 -20.962181 -1.225636 # C
731 1 17.122198 -20.962181 1.225636 # C
732 1 17.122198 20.962181 -1.225636 # C
733 1 17.122198 20.962181 1.225636 # C
734 1 1.225636 -17.122198 -20.962181 # C