3072
Atoms. Timestep: 117554
C 8.96359 10.4541 22.6178
C 17.5516 5.44131 19.3045
C 4.69458 13.283 24.8668
C 10.1453 5.30277 24.6954
C 12.8239 13.3805 19.6945
C 13.9688 2.6985 22.6608
C 22.2331 2.7513 17.673
C 16.9509 10.9548 18.095
C 11.0013 9.03282 21.4272
C 8.47117 13.0918 21.8335
C 7.57325 9.39879 24.774
C 19.3923 6.76196 17.703
C 15.0682 6.63625 19.8012
C 18.0019 2.76957 20.0028
C 2.63739 14.8005 26.1142
C 5.6594 10.9778 26.0763
C 6.17714 14.3958 22.7876
C 8.59745 7.15897 26.0521
C 10.7164 2.81797 26.1418
C 11.134 6.2181 21.8861
C 10.271 14.4457 20.1137
C 13.3171 10.7346 20.6965
C 14.7522 15.0349 18.0276
C 12.7426 1.29695 24.8895
C 16.1303 1.3918 21.4708
C 13.0388 5.07475 21.0659
C 20.2995 1.40359 19.0934
C 24.557 1.36821 16.704
C 21.6122 5.34037 16.7253
C 15.2435 9.60922 19.9638
C 18.8457 9.39363 16.7622
C 16.7168 13.8666 17.244
C 7.88178 11.1541 23.1548
C 9.20813 9.13707 23.0323
C 9.84104 11.1177 21.7535
C 16.5701 4.73549 20.0123
C 18.7458 4.79643 18.9484
C 17.3258 6.77478 18.9358
C 5.73537 12.5626 24.275
C 4.29479 14.5064 24.338
C 4.16725 12.8887 26.094
C 11.0232 4.35545 24.1801
C 9.83504 6.52816 24.0302
C 9.7046 5.03597 26.0314
C 14.104 12.7985 19.6702
C 12.4927 14.6263 19.0627
C 11.82 12.596 20.362
C 14.7104 3.35264 21.6475
C 12.8475 3.20827 23.3019
C 14.3416 1.39439 23.0606
C 23.082 3.36312 16.7489
C 21.0995 3.45286 18.1227
C 22.443 1.39329 17.959
C 17.681 11.5513 17.0137
C 16.0499 11.6559 18.9143
C 17.0467 9.54515 18.3713
C 11.8271 8.22201 20.6489
C 10.9791 10.4419 21.2912
C 10.1831 8.36847 22.3921
C 9.63596 12.4565 21.3927
C 8.17531 14.378 21.3819
C 7.60568 12.4529 22.7266
C 8.5489 8.61861 24.1463
C 7.15066 10.603 24.2074
C 7.1668 9.0943 26.0713
C 20.1836 7.33694 16.707
C 18.2658 7.46149 18.1534
C 19.6761 5.46078 18.1453
C 16.1407 7.42945 19.3209
C 13.744 7.09137 19.8742
C 15.313 5.30735 20.2675
C 18.9858 3.46193 19.2962
C 16.8319 3.42293 20.4158
C 18.1655 1.39898 20.2053
C 1.56118 15.543 26.7286
C 3.27064 13.7338 26.7606
C 3.19648 15.1839 24.89
C 4.77907 11.8224 26.7562
C 6.30023 9.94311 26.7562
C 6.12918 11.3382 24.8129
C 5.03722 15.0376 23.2834
C 6.49588 13.1216 23.2483
C 6.99372 14.9875 21.8211
C 7.81176 8.07023 26.7559
C 9.09326 6.06377 26.752
C 8.96574 7.40891 24.7218
C 10.0178 3.85971 26.758
C 11.2202 1.62567 26.7498
C 11.243 3.17891 24.934
C 10.354 6.98608 22.7716
C 11.9687 4.30277 23.1257
C 11.5578 6.82983 20.666
C 9.03129 15.0077 20.4653
C 10.5695 13.1707 20.6185
C 11.1706 15.1317 19.2558
C 12.0201 11.2393 20.7743
C 13.1613 8.35747 20.1727
C 14.3505 11.6836 20.5185
C 13.3939 15.4062 18.2618
C 15.1943 12.7807 18.7585
C 15.7225 15.9634 17.5372
C 11.9841 0.707684 25.9428
C 13.6947 0.688765 24.0864
C 12.3401 2.50703 24.4199
C 15.2734 0.694834 22.3035
C 17.1706 0.69543 20.8685
C 15.9009 2.7391 21.2022
C 12.0102 5.10353 22.0571
C 14.3404 4.55737 21.0083
C 12.7319 6.1348 20.1738
C 19.2591 0.698347 19.6976
C 21.4097 0.700158 18.6045
C 20.1414 2.77934 18.8842
C 23.5623 0.699054 17.448
C 20.8162 4.7657 17.7153
C 13.8836 9.47536 20.356
C 16.1323 8.83872 19.2156
C 15.5365 10.9908 20.0618
C 18.0659 8.80179 17.7661
C 15.466 13.7918 17.943
C -8.96304 -10.4541 22.6178
C -8.96277 10.454 -22.6178
C -8.96277 10.454 22.6178
C -10.454 -22.6179 -8.9632
C -10.454 -22.6179 8.9632
C -10.4535 22.6178 -8.96316
C -10.4535 22.6178 8.96316
C -22.6176 -8.96309 -10.4539
C -22.6176 -8.96309 10.4539
C -22.6175 8.96327 -10.4541
C -22.6175 8.96327 10.4541
C 22.6181 -8.96327 -10.4541
C 22.6181 -8.96327 10.4541
C 22.6181 8.96309 -10.4539
C 22.6181 8.96309 10.4539
C 10.454 -22.6178 -8.96316
C 10.454 -22.6178 8.96316
C 10.4546 22.6179 -8.9632
C 10.4546 22.6179 8.9632
C 8.96332 -10.454 -22.6178
C 8.96332 -10.454 22.6178
C 8.96359 10.4541 -22.6178
C -8.96304 -10.4541 -22.6178
C -17.5511 -5.44131 19.3045
C -17.551 5.44144 -19.3045
C -17.551 5.44144 19.3045
C -5.44133 -19.3045 -17.5514
C -5.44133 -19.3045 17.5514
C -5.44087 19.3045 -17.5513
C -5.44087 19.3045 17.5513
C -19.3044 -17.5513 -5.44138
C -19.3044 -17.5513 5.44138
C -19.304 17.5513 -5.44137
C -19.304 17.5513 5.44137
C 19.3046 -17.5513 -5.44137
C 19.3046 -17.5513 5.44137
C 19.305 17.5513 -5.44138
C 19.305 17.5513 5.44138
C 5.44142 -19.3045 -17.5513
C 5.44142 -19.3045 17.5513
C 5.44188 19.3045 -17.5514
C 5.44188 19.3045 17.5514
C 17.5516 -5.44144 -19.3045
C 17.5516 -5.44144 19.3045
C 17.5516 5.44131 -19.3045
C -17.5511 -5.44131 -19.3045
C -4.69403 -13.283 24.8668
C -4.69371 13.2829 -24.8668
C -4.69371 13.2829 24.8668
C -13.283 -24.8668 -4.69416
C -13.283 -24.8668 4.69416
C -13.2824 24.8667 -4.69413
C -13.2824 24.8667 4.69413
C -24.8665 -4.69403 -13.2829
C -24.8665 -4.69403 13.2829
C -24.8665 4.69426 -13.2831
C -24.8665 4.69426 13.2831
C 24.8671 -4.69426 -13.2831
C 24.8671 -4.69426 13.2831
C 24.867 4.69403 -13.2829
C 24.867 4.69403 13.2829
C 13.283 -24.8667 -4.69413
C 13.283 -24.8667 4.69413
C 13.2835 24.8668 -4.69416
C 13.2835 24.8668 4.69416
C 4.69426 -13.2829 -24.8668
C 4.69426 -13.2829 24.8668
C 4.69458 13.283 -24.8668
C -4.69403 -13.283 -24.8668
C -10.1447 -5.30277 24.6954
C -10.1446 5.30275 -24.6954
C -10.1446 5.30275 24.6954
C -5.30276 -24.6954 -10.145
C -5.30276 -24.6954 10.145
C -5.30221 24.6953 -10.1449
C -5.30221 24.6953 10.1449
C -24.6952 -10.1449 -5.30271
C -24.6952 -10.1449 5.30271
C -24.695 10.145 -5.3028
C -24.695 10.145 5.3028
C 24.6955 -10.145 -5.3028
C 24.6955 -10.145 5.3028
C 24.6958 10.1449 -5.30271
C 24.6958 10.1449 5.30271
C 5.30276 -24.6953 -10.1449
C 5.30276 -24.6953 10.1449
C 5.30331 24.6954 -10.145
C 5.30331 24.6954 10.145
C 10.1451 -5.30275 -24.6954
C 10.1451 -5.30275 24.6954
C 10.1453 5.30277 -24.6954
C -10.1447 -5.30277 -24.6954
C -12.8233 -13.3805 19.6945
C -12.823 13.3805 -19.6945
C -12.823 13.3805 19.6945
C -13.3805 -19.6945 -12.8234
C -13.3805 -19.6945 12.8234
C -13.38 19.6945 -12.8234
C -13.38 19.6945 12.8234
C -19.6943 -12.8233 -13.3805
C -19.6943 -12.8233 13.3805
C -19.6941 12.8235 -13.3806
C -19.6941 12.8235 13.3806
C 19.6947 -12.8235 -13.3806
C 19.6947 -12.8235 13.3806
C 19.6949 12.8233 -13.3805
C 19.6949 12.8233 13.3805
C 13.3806 -19.6945 -12.8234
C 13.3806 -19.6945 12.8234
C 13.3811 19.6945 -12.8234
C 13.3811 19.6945 12.8234
C 12.8235 -13.3805 -19.6945
C 12.8235 -13.3805 19.6945
C 12.8239 13.3805 -19.6945
C -12.8233 -13.3805 -19.6945
C -13.9683 -2.6985 22.6608
C -13.9682 2.69856 -22.6608
C -13.9682 2.69856 22.6608
C -2.69851 -22.6608 -13.9685
C -2.69851 -22.6608 13.9685
C -2.698 22.6608 -13.9685
C -2.698 22.6608 13.9685
C -22.6607 -13.9685 -2.69851
C -22.6607 -13.9685 2.69851
C -22.6603 13.9685 -2.69854
C -22.6603 13.9685 2.69854
C 22.6609 -13.9685 -2.69854
C 22.6609 -13.9685 2.69854
C 22.6612 13.9685 -2.69851
C 22.6612 13.9685 2.69851
C 2.69855 -22.6608 -13.9685
C 2.69855 -22.6608 13.9685
C 2.69906 22.6608 -13.9685
C 2.69906 22.6608 13.9685
C 13.9688 -2.69856 -22.6608
C 13.9688 -2.69856 22.6608
C 13.9688 2.6985 -22.6608
C -13.9683 -2.6985 -22.6608
C -22.2326 -2.7513 17.673
C -22.2326 2.75147 -17.6731
C -22.2326 2.75147 17.6731
C -2.75131 -17.6731 -22.2329
C -2.75131 -17.6731 22.2329
C -2.75091 17.673 -22.2328
C -2.75091 17.673 22.2328
C -17.6731 -22.2329 -2.75139
C -17.6731 -22.2329 2.75139
C -17.6726 22.2328 -2.75137
C -17.6726 22.2328 2.75137
C 17.6731 -22.2328 -2.75137
C 17.6731 -22.2328 2.75137
C 17.6736 22.2329 -2.75139
C 17.6736 22.2329 2.75139
C 2.75146 -17.673 -22.2328
C 2.75146 -17.673 22.2328
C 2.75186 17.6731 -22.2329
C 2.75186 17.6731 22.2329
C 22.2331 -2.75147 -17.6731
C 22.2331 -2.75147 17.6731
C 22.2331 2.7513 -17.673
C -22.2326 -2.7513 -17.673
C -16.9503 -10.9548 18.095
C -16.9501 10.9549 -18.0951
C -16.9501 10.9549 18.0951
C -10.9548 -18.095 -16.9506
C -10.9548 -18.095 16.9506
C -10.9544 18.095 -16.9505
C -10.9544 18.095 16.9505
C -18.0949 -16.9505 -10.9549
C -18.0949 -16.9505 10.9549
C -18.0945 16.9505 -10.9549
C -18.0945 16.9505 10.9549
C 18.0951 -16.9505 -10.9549
C 18.0951 -16.9505 10.9549
C 18.0955 16.9505 -10.9549
C 18.0955 16.9505 10.9549
C 10.9549 -18.095 -16.9505
C 10.9549 -18.095 16.9505
C 10.9554 18.095 -16.9506
C 10.9554 18.095 16.9506
C 16.9507 -10.9549 -18.0951
C 16.9507 -10.9549 18.0951
C 16.9509 10.9548 -18.095
C -16.9503 -10.9548 -18.095
C -11.0008 -9.03282 21.4272
C -11.0006 9.0328 -21.4272
C -11.0006 9.0328 21.4272
C -9.0328 -21.4273 -11.001
C -9.0328 -21.4273 11.001
C -9.03227 21.4272 -11.0009
C -9.03227 21.4272 11.0009
C -21.427 -11.0009 -9.03274
C -21.427 -11.0009 9.03274
C -21.4269 11.001 -9.03289
C -21.4269 11.001 9.03289
C 21.4274 -11.001 -9.03289
C 21.4274 -11.001 9.03289
C 21.4276 11.0009 -9.03274
C 21.4276 11.0009 9.03274
C 9.03282 -21.4272 -11.0009
C 9.03282 -21.4272 11.0009
C 9.03335 21.4273 -11.001
C 9.03335 21.4273 11.001
C 11.0011 -9.0328 -21.4272
C 11.0011 -9.0328 21.4272
C 11.0013 9.03282 -21.4272
C -11.0008 -9.03282 -21.4272
C -8.47062 -13.0918 21.8335
C -8.47027 13.0917 -21.8334
C -8.47027 13.0917 21.8334
C -13.0917 -21.8335 -8.47075
C -13.0917 -21.8335 8.47075
C -13.0912 21.8334 -8.47069
C -13.0912 21.8334 8.47069
C -21.8331 -8.4706 -13.0916
C -21.8331 -8.4706 13.0916
C -21.8332 8.47084 -13.0918
C -21.8332 8.47084 13.0918
C 21.8337 -8.47084 -13.0918
C 21.8337 -8.47084 13.0918
C 21.8337 8.4706 -13.0916
C 21.8337 8.4706 13.0916
C 13.0917 -21.8334 -8.47069
C 13.0917 -21.8334 8.47069
C 13.0923 21.8335 -8.47075
C 13.0923 21.8335 8.47075
C 8.47082 -13.0917 -21.8334
C 8.47082 -13.0917 21.8334
C 8.47117 13.0918 -21.8335
C -8.47062 -13.0918 -21.8335
C -7.5727 -9.39879 24.774
C -7.57246 9.39872 -24.774
C -7.57246 9.39872 24.774
C -9.39875 -24.774 -7.57286
C -9.39875 -24.774 7.57286
C -9.39821 24.7739 -7.57285
C -9.39821 24.7739 7.57285
C -24.7737 -7.57279 -9.39868
C -24.7737 -7.57279 9.39868
C -24.7736 7.57293 -9.39883
C -24.7736 7.57293 9.39883
C 24.7742 -7.57293 -9.39883
C 24.7742 -7.57293 9.39883
C 24.7743 7.57279 -9.39868
C 24.7743 7.57279 9.39868
C 9.39876 -24.7739 -7.57285
C 9.39876 -24.7739 7.57285
C 9.3993 24.774 -7.57286
C 9.3993 24.774 7.57286
C 7.57301 -9.39872 -24.774
C 7.57301 -9.39872 24.774
C 7.57325 9.39879 -24.774
C -7.5727 -9.39879 -24.774
C -19.3918 -6.76196 17.703
C -19.3917 6.76214 -17.7031
C -19.3917 6.76214 17.7031
C -6.762 -17.7031 -19.3921
C -6.762 -17.7031 19.3921
C -6.76155 17.703 -19.392
C -6.76155 17.703 19.392
C -17.703 -19.3921 -6.76207
C -17.703 -19.3921 6.76207
C -17.7025 19.392 -6.76203
C -17.7025 19.392 6.76203
C 17.7031 -19.392 -6.76203
C 17.7031 -19.392 6.76203
C 17.7036 19.3921 -6.76207
C 17.7036 19.3921 6.76207
C 6.76209 -17.703 -19.392
C 6.76209 -17.703 19.392
C 6.76255 17.7031 -19.3921
C 6.76255 17.7031 19.3921
C 19.3923 -6.76214 -17.7031
C 19.3923 -6.76214 17.7031
C 19.3923 6.76196 -17.703
C -19.3918 -6.76196 -17.703
C -15.0677 -6.63624 19.8012
C -15.0676 6.63632 -19.8012
C -15.0676 6.63632 19.8012
C -6.63626 -19.8012 -15.0679
C -6.63626 -19.8012 15.0679
C -6.63576 19.8012 -15.0679
C -6.63576 19.8012 15.0679
C -19.8011 -15.0679 -6.63626
C -19.8011 -15.0679 6.63626
C -19.8008 15.0679 -6.63631
C -19.8008 15.0679 6.63631
C 19.8013 -15.0679 -6.63631
C 19.8013 -15.0679 6.63631
C 19.8017 15.0679 -6.63626
C 19.8017 15.0679 6.63626
C 6.63631 -19.8012 -15.0679
C 6.63631 -19.8012 15.0679
C 6.63681 19.8012 -15.0679
C 6.63681 19.8012 15.0679
C 15.0681 -6.63632 -19.8012
C 15.0681 -6.63632 19.8012
C 15.0682 6.63625 -19.8012
C -15.0677 -6.63624 -19.8012
C -18.0014 -2.76957 20.0028
C -18.0014 2.76968 -20.0029
C -18.0014 2.76968 20.0029
C -2.76957 -20.0029 -18.0017
C -2.76957 -20.0029 18.0017
C -2.76913 20.0028 -18.0016
C -2.76913 20.0028 18.0016
C -20.0028 -18.0017 -2.76962
C -20.0028 -18.0017 2.76962
C -20.0024 18.0016 -2.76962
C -20.0024 18.0016 2.76962
C 20.0029 -18.0016 -2.76962
C 20.0029 -18.0016 2.76962
C 20.0033 18.0017 -2.76962
C 20.0033 18.0017 2.76962
C 2.76968 -20.0028 -18.0016
C 2.76968 -20.0028 18.0016
C 2.77012 20.0029 -18.0017
C 2.77012 20.0029 18.0017
C 18.0019 -2.76968 -20.0029
C 18.0019 -2.76968 20.0029
C 18.0019 2.76957 -20.0028
C -18.0014 -2.76957 -20.0028
C -2.63685 -14.8005 26.1142
C -2.63652 14.8004 -26.1142
C -2.63652 14.8004 26.1142
C -14.8004 -26.1142 -2.63696
C -14.8004 -26.1142 2.63696
C -14.7999 26.1141 -2.63695
C -14.7999 26.1141 2.63695
C -26.1139 -2.63689 -14.8004
C -26.1139 -2.63689 14.8004
C -26.1139 2.63703 -14.8005
C -26.1139 2.63703 14.8005
C 26.1144 -2.63703 -14.8005
C 26.1144 -2.63703 14.8005
C 26.1144 2.63689 -14.8004
C 26.1144 2.63689 14.8004
C 14.8004 -26.1141 -2.63695
C 14.8004 -26.1141 2.63695
C 14.801 26.1142 -2.63696
C 14.801 26.1142 2.63696
C 2.63707 -14.8004 -26.1142
C 2.63707 -14.8004 26.1142
C 2.63739 14.8005 -26.1142
C -2.63685 -14.8005 -26.1142
C -5.65886 -10.9778 26.0763
C -5.6586 10.9778 -26.0763
C -5.6586 10.9778 26.0763
C -10.9778 -26.0764 -5.659
C -10.9778 -26.0764 5.659
C -10.9772 26.0763 -5.659
C -10.9772 26.0763 5.659
C -26.0761 -5.65895 -10.9777
C -26.0761 -5.65895 10.9777
C -26.076 5.65906 -10.9778
C -26.076 5.65906 10.9778
C 26.0766 -5.65906 -10.9778
C 26.0766 -5.65906 10.9778
C 26.0766 5.65895 -10.9777
C 26.0766 5.65895 10.9777
C 10.9778 -26.0763 -5.659
C 10.9778 -26.0763 5.659
C 10.9783 26.0764 -5.659
C 10.9783 26.0764 5.659
C 5.65915 -10.9778 -26.0763
C 5.65915 -10.9778 26.0763
C 5.6594 10.9778 -26.0763
C -5.65886 -10.9778 -26.0763
C -6.17659 -14.3958 22.7876
C -6.17621 14.3957 -22.7875
C -6.17621 14.3957 22.7875
C -14.3958 -22.7876 -6.1767
C -14.3958 -22.7876 6.1767
C -14.3952 22.7875 -6.17665
C -14.3952 22.7875 6.17665
C -22.7872 -6.17654 -14.3956
C -22.7872 -6.17654 14.3956
C -22.7873 6.17681 -14.3959
C -22.7873 6.17681 14.3959
C 22.7879 -6.17681 -14.3959
C 22.7879 -6.17681 14.3959
C 22.7878 6.17654 -14.3956
C 22.7878 6.17654 14.3956
C 14.3957 -22.7875 -6.17665
C 14.3957 -22.7875 6.17665
C 14.3963 22.7876 -6.1767
C 14.3963 22.7876 6.1767
C 6.17676 -14.3957 -22.7875
C 6.17676 -14.3957 22.7875
C 6.17714 14.3958 -22.7876
C -6.17659 -14.3958 -22.7876
C -8.5969 -7.15897 26.0521
C -8.59671 7.15892 -26.0521
C -8.59671 7.15892 26.0521
C -7.15894 -26.0521 -8.59708
C -7.15894 -26.0521 8.59708
C -7.1584 26.0521 -8.59708
C -7.1584 26.0521 8.59708
C -26.0519 -8.59706 -7.15891
C -26.0519 -8.59706 7.15891
C -26.0517 8.5971 -7.15898
C -26.0517 8.5971 7.15898
C 26.0523 -8.5971 -7.15898
C 26.0523 -8.5971 7.15898
C 26.0525 8.59706 -7.15891
C 26.0525 8.59706 7.15891
C 7.15895 -26.0521 -8.59708
C 7.15895 -26.0521 8.59708
C 7.15949 26.0521 -8.59708
C 7.15949 26.0521 8.59708
C 8.59726 -7.15892 -26.0521
C 8.59726 -7.15892 26.0521
C 8.59745 7.15897 -26.0521
C -8.5969 -7.15897 -26.0521
C -10.7159 -2.81797 26.1418
C -10.7158 2.81796 -26.1418
C -10.7158 2.81796 26.1418
C -2.81797 -26.1418 -10.7161
C -2.81797 -26.1418 10.7161
C -2.81741 26.1418 -10.7161
C -2.81741 26.1418 10.7161
C -26.1417 -10.7161 -2.81795
C -26.1417 -10.7161 2.81795
C -26.1413 10.7161 -2.81798
C -26.1413 10.7161 2.81798
C 26.1419 -10.7161 -2.81798
C 26.1419 -10.7161 2.81798
C 26.1422 10.7161 -2.81795
C 26.1422 10.7161 2.81795
C 2.81796 -26.1418 -10.7161
C 2.81796 -26.1418 10.7161
C 2.81852 26.1418 -10.7161
C 2.81852 26.1418 10.7161
C 10.7164 -2.81796 -26.1418
C 10.7164 -2.81796 26.1418
C 10.7164 2.81797 -26.1418
C -10.7159 -2.81797 -26.1418
C -11.1334 -6.2181 21.8861
C -11.1333 6.2181 -21.8861
C -11.1333 6.2181 21.8861
C -6.21809 -21.8861 -11.1337
C -6.21809 -21.8861 11.1337
C -6.21756 21.886 -11.1336
C -6.21756 21.886 11.1336
C -21.8859 -11.1336 -6.21803
C -21.8859 -11.1336 6.21803
C -21.8857 11.1337 -6.21817
C -21.8857 11.1337 6.21817
C 21.8862 -11.1337 -6.21817
C 21.8862 -11.1337 6.21817
C 21.8864 11.1336 -6.21803
C 21.8864 11.1336 6.21803
C 6.21811 -21.886 -11.1336
C 6.21811 -21.886 11.1336
C 6.21864 21.8861 -11.1337
C 6.21864 21.8861 11.1337
C 11.1339 -6.2181 -21.8861
C 11.1339 -6.2181 21.8861
C 11.134 6.2181 -21.8861
C -11.1334 -6.2181 -21.8861
C -10.2705 -14.4457 20.1137
C -10.2701 14.4457 -20.1136
C -10.2701 14.4457 20.1136
C -14.4457 -20.1137 -10.2706
C -14.4457 -20.1137 10.2706
C -14.4452 20.1136 -10.2705
C -14.4452 20.1136 10.2705
C -20.1134 -10.2705 -14.4456
C -20.1134 -10.2705 14.4456
C -20.1133 10.2707 -14.4458
C -20.1133 10.2707 14.4458
C 20.1139 -10.2707 -14.4458
C 20.1139 -10.2707 14.4458
C 20.114 10.2705 -14.4456
C 20.114 10.2705 14.4456
C 14.4457 -20.1136 -10.2705
C 14.4457 -20.1136 10.2705
C 14.4462 20.1137 -10.2706
C 14.4462 20.1137 10.2706
C 10.2707 -14.4457 -20.1136
C 10.2707 -14.4457 20.1136
C 10.271 14.4457 -20.1137
C -10.2705 -14.4457 -20.1137
C -13.3165 -10.7346 20.6965
C -13.3163 10.7347 -20.6965
C -13.3163 10.7347 20.6965
C -10.7346 -20.6966 -13.3167
C -10.7346 -20.6966 13.3167
C -10.7341 20.6965 -13.3166
C -10.7341 20.6965 13.3166
C -20.6964 -13.3166 -10.7346
C -20.6964 -13.3166 10.7346
C -20.6962 13.3168 -10.7347
C -20.6962 13.3168 10.7347
C 20.6967 -13.3168 -10.7347
C 20.6967 -13.3168 10.7347
C 20.6969 13.3166 -10.7346
C 20.6969 13.3166 10.7346
C 10.7347 -20.6965 -13.3166
C 10.7347 -20.6965 13.3166
C 10.7352 20.6966 -13.3167
C 10.7352 20.6966 13.3167
C 13.3168 -10.7347 -20.6965
C 13.3168 -10.7347 20.6965
C 13.3171 10.7346 -20.6965
C -13.3165 -10.7346 -20.6965
C -14.7516 -15.0349 18.0276
C -14.7513 15.035 -18.0276
C -14.7513 15.035 18.0276
C -15.0349 -18.0276 -14.7517
C -15.0349 -18.0276 14.7517
C -15.0344 18.0276 -14.7517
C -15.0344 18.0276 14.7517
C -18.0275 -14.7517 -15.0349
C -18.0275 -14.7517 15.0349
C -18.0272 14.7518 -15.035
C -18.0272 14.7518 15.035
C 18.0277 -14.7518 -15.035
C 18.0277 -14.7518 15.035
C 18.0281 14.7517 -15.0349
C 18.0281 14.7517 15.0349
C 15.035 -18.0276 -14.7517
C 15.035 -18.0276 14.7517
C 15.0354 18.0276 -14.7517
C 15.0354 18.0276 14.7517
C 14.7518 -15.035 -18.0276
C 14.7518 -15.035 18.0276
C 14.7522 15.0349 -18.0276
C -14.7516 -15.0349 -18.0276
C -12.742 -1.29695 24.8895
C -12.742 1.29698 -24.8895
C -12.742 1.29698 24.8895
C -1.29696 -24.8895 -12.7423
C -1.29696 -24.8895 12.7423
C -1.29642 24.8895 -12.7423
C -1.29642 24.8895 12.7423
C -24.8894 -12.7423 -1.29696
C -24.8894 -12.7423 1.29696
C -24.8891 12.7423 -1.29697
C -24.8891 12.7423 1.29697
C 24.8896 -12.7423 -1.29697
C 24.8896 -12.7423 1.29697
C 24.89 12.7423 -1.29696
C 24.89 12.7423 1.29696
C 1.29697 -24.8895 -12.7423
C 1.29697 -24.8895 12.7423
C 1.29751 24.8895 -12.7423
C 1.29751 24.8895 12.7423
C 12.7426 -1.29698 -24.8895
C 12.7426 -1.29698 24.8895
C 12.7426 1.29695 -24.8895
C -12.742 -1.29695 -24.8895
C -16.1298 -1.3918 21.4708
C -16.1298 1.39189 -21.4708
C -16.1298 1.39189 21.4708
C -1.3918 -21.4708 -16.1301
C -1.3918 -21.4708 16.1301
C -1.39133 21.4708 -16.13
C -1.39133 21.4708 16.13
C -21.4708 -16.1301 -1.39184
C -21.4708 -16.1301 1.39184
C -21.4703 16.13 -1.39184
C -21.4703 16.13 1.39184
C 21.4709 -16.13 -1.39184
C 21.4709 -16.13 1.39184
C 21.4713 16.1301 -1.39184
C 21.4713 16.1301 1.39184
C 1.39188 -21.4708 -16.13
C 1.39188 -21.4708 16.13
C 1.39235 21.4708 -16.1301
C 1.39235 21.4708 16.1301
C 16.1303 -1.39189 -21.4708
C 16.1303 -1.39189 21.4708
C 16.1303 1.3918 -21.4708
C -16.1298 -1.3918 -21.4708
C -13.0382 -5.07475 21.0659
C -13.0381 5.07478 -21.066
C -13.0381 5.07478 21.066
C -5.07475 -21.066 -13.0385
C -5.07475 -21.066 13.0385
C -5.07423 21.0659 -13.0384
C -5.07423 21.0659 13.0384
C -21.0658 -13.0384 -5.07472
C -21.0658 -13.0384 5.07472
C -21.0655 13.0384 -5.07481
C -21.0655 13.0384 5.07481
C 21.0661 -13.0384 -5.07481
C 21.0661 -13.0384 5.07481
C 21.0664 13.0384 -5.07472
C 21.0664 13.0384 5.07472
C 5.07478 -21.0659 -13.0384
C 5.07478 -21.0659 13.0384
C 5.0753 21.066 -13.0385
C 5.0753 21.066 13.0385
C 13.0387 -5.07478 -21.066
C 13.0387 -5.07478 21.066
C 13.0388 5.07475 -21.0659
C -13.0382 -5.07475 -21.0659
C -20.299 -1.40359 19.0934
C -20.299 1.40373 -19.0934
C -20.299 1.40373 19.0934
C -1.40359 -19.0934 -20.2993
C -1.40359 -19.0934 20.2993
C -1.40318 19.0934 -20.2993
C -1.40318 19.0934 20.2993
C -19.0934 -20.2993 -1.40367
C -19.0934 -20.2993 1.40367
C -19.0929 20.2992 -1.40366
C -19.0929 20.2992 1.40366
C 19.0935 -20.2992 -1.40366
C 19.0935 -20.2992 1.40366
C 19.0939 20.2993 -1.40367
C 19.0939 20.2993 1.40367
C 1.40373 -19.0934 -20.2993
C 1.40373 -19.0934 20.2993
C 1.40414 19.0934 -20.2993
C 1.40414 19.0934 20.2993
C 20.2995 -1.40373 -19.0934
C 20.2995 -1.40373 19.0934
C 20.2995 1.40359 -19.0934
C -20.299 -1.40359 -19.0934
C -24.5565 -1.36821 16.704
C -24.5565 1.36836 -16.7041
C -24.5565 1.36836 16.7041
C -1.36818 -16.7041 -24.5568
C -1.36818 -16.7041 24.5568
C -1.36783 16.704 -24.5567
C -1.36783 16.704 24.5567
C -16.704 -24.5568 -1.36829
C -16.704 -24.5568 1.36829
C -16.7035 24.5567 -1.36828
C -16.7035 24.5567 1.36828
C 16.704 -24.5567 -1.36828
C 16.704 -24.5567 1.36828
C 16.7046 24.5568 -1.36829
C 16.7046 24.5568 1.36829
C 1.36838 -16.704 -24.5567
C 1.36838 -16.704 24.5567
C 1.36873 16.7041 -24.5568
C 1.36873 16.7041 24.5568
C 24.557 -1.36835 -16.7041
C 24.557 -1.36835 16.7041
C 24.557 1.36821 -16.704
C -24.5565 -1.36821 -16.704
C -21.6117 -5.34037 16.7253
C -21.6117 5.3406 -16.7255
C -21.6117 5.3406 16.7255
C -5.34043 -16.7255 -21.612
C -5.34043 -16.7255 21.612
C -5.34 16.7254 -21.6119
C -5.34 16.7254 21.6119
C -16.7254 -21.612 -5.34051
C -16.7254 -21.612 5.34051
C -16.7249 21.6119 -5.34046
C -16.7249 21.6119 5.34046
C 16.7255 -21.6119 -5.34046
C 16.7255 -21.6119 5.34046
C 16.726 21.612 -5.34051
C 16.726 21.612 5.34051
C 5.34055 -16.7254 -21.6119
C 5.34055 -16.7254 21.6119
C 5.34098 16.7255 -21.612
C 5.34098 16.7255 21.612
C 21.6123 -5.3406 -16.7255
C 21.6123 -5.3406 16.7255
C 21.6122 5.34037 -16.7253
C -21.6117 -5.34037 -16.7253
C -15.243 -9.60922 19.9638
C -15.2428 9.60931 -19.9638
C -15.2428 9.60931 19.9638
C -9.60924 -19.9638 -15.2432
C -9.60924 -19.9638 15.2432
C -9.60874 19.9637 -15.2431
C -9.60874 19.9637 15.2431
C -19.9637 -15.2431 -9.60924
C -19.9637 -15.2431 9.60924
C -19.9634 15.2432 -9.60929
C -19.9634 15.2432 9.60929
C 19.9639 -15.2432 -9.60929
C 19.9639 -15.2432 9.60929
C 19.9642 15.2431 -9.60924
C 19.9642 15.2431 9.60924
C 9.60929 -19.9637 -15.2431
C 9.60929 -19.9637 15.2431
C 9.60979 19.9638 -15.2432
C 9.60979 19.9638 15.2432
C 15.2433 -9.60931 -19.9638
C 15.2433 -9.60931 19.9638
C 15.2435 9.60922 -19.9638
C -15.243 -9.60922 -19.9638
C -18.8452 -9.39363 16.7622
C -18.8451 9.3938 -16.7624
C -18.8451 9.3938 16.7624
C -9.39366 -16.7623 -18.8455
C -9.39366 -16.7623 18.8455
C -9.39322 16.7622 -18.8454
C -9.39322 16.7622 18.8454
C -16.7622 -18.8454 -9.39374
C -16.7622 -18.8454 9.39374
C -16.7618 18.8454 -9.3937
C -16.7618 18.8454 9.3937
C 16.7623 -18.8454 -9.3937
C 16.7623 -18.8454 9.3937
C 16.7628 18.8454 -9.39374
C 16.7628 18.8454 9.39374
C 9.39377 -16.7622 -18.8454
C 9.39377 -16.7622 18.8454
C 9.39421 16.7623 -18.8455
C 9.39421 16.7623 18.8455
C 18.8456 -9.3938 -16.7624
C 18.8456 -9.3938 16.7624
C 18.8457 9.39363 -16.7622
C -18.8452 -9.39363 -16.7622
C -16.7163 -13.8666 17.244
C -16.716 13.8666 -17.244
C -16.716 13.8666 17.244
C -13.8665 -17.244 -16.7164
C -13.8665 -17.244 16.7164
C -13.8661 17.244 -16.7164
C -13.8661 17.244 16.7164
C -17.244 -16.7164 -13.8666
C -17.244 -16.7164 13.8666
C -17.2436 16.7164 -13.8666
C -17.2436 16.7164 13.8666
C 17.2441 -16.7164 -13.8666
C 17.2441 -16.7164 13.8666
C 17.2445 16.7164 -13.8666
C 17.2445 16.7164 13.8666
C 13.8667 -17.244 -16.7164
C 13.8667 -17.244 16.7164
C 13.8671 17.244 -16.7164
C 13.8671 17.244 16.7164
C 16.7165 -13.8666 -17.244
C 16.7165 -13.8666 17.244
C 16.7168 13.8666 -17.244
C -16.7163 -13.8666 -17.244
C -7.88123 -11.1541 23.1548
C -7.88094 11.154 -23.1548
C -7.88094 11.154 23.1548
C -11.154 -23.1548 -7.88138
C -11.154 -23.1548 7.88138
C -11.1535 23.1548 -7.88134
C -11.1535 23.1548 7.88134
C -23.1545 -7.88125 -11.1539
C -23.1545 -7.88125 11.1539
C -23.1545 7.88147 -11.1541
C -23.1545 7.88147 11.1541
C 23.1551 -7.88147 -11.1541
C 23.1551 -7.88147 11.1541
C 23.1551 7.88125 -11.1539
C 23.1551 7.88125 11.1539
C 11.154 -23.1548 -7.88134
C 11.154 -23.1548 7.88134
C 11.1546 23.1548 -7.88138
C 11.1546 23.1548 7.88138
C 7.88149 -11.154 -23.1548
C 7.88149 -11.154 23.1548
C 7.88178 11.1541 -23.1548
C -7.88123 -11.1541 -23.1548
C -9.20758 -9.13707 23.0323
C -9.20735 9.13701 -23.0323
C -9.20735 9.13701 23.0323
C -9.13703 -23.0323 -9.20775
C -9.13703 -23.0323 9.20775
C -9.1365 23.0322 -9.20772
C -9.1365 23.0322 9.20772
C -23.032 -9.20766 -9.13695
C -23.032 -9.20766 9.13695
C -23.0319 9.20781 -9.13713
C -23.0319 9.20781 9.13713
C 23.0325 -9.20781 -9.13713
C 23.0325 -9.20781 9.13713
C 23.0326 9.20766 -9.13695
C 23.0326 9.20766 9.13695
C 9.13705 -23.0322 -9.20772
C 9.13705 -23.0322 9.20772
C 9.13758 23.0323 -9.20775
C 9.13758 23.0323 9.20775
C 9.2079 -9.13701 -23.0323
C 9.2079 -9.13701 23.0323
C 9.20813 9.13707 -23.0323
C -9.20758 -9.13707 -23.0323
C -9.84049 -11.1177 21.7535
C -9.84021 11.1176 -21.7535
C -9.84021 11.1176 21.7535
C -11.1176 -21.7535 -9.84065
C -11.1176 -21.7535 9.84065
C -11.1171 21.7535 -9.84059
C -11.1171 21.7535 9.84059
C -21.7532 -9.84053 -11.1175
C -21.7532 -9.84053 11.1175
C -21.7532 9.84072 -11.1177
C -21.7532 9.84072 11.1177
C 21.7537 -9.84072 -11.1177
C 21.7537 -9.84072 11.1177
C 21.7538 9.84053 -11.1175
C 21.7538 9.84053 11.1175
C 11.1176 -21.7535 -9.84059
C 11.1176 -21.7535 9.84059
C 11.1182 21.7535 -9.84065
C 11.1182 21.7535 9.84065
C 9.84076 -11.1176 -21.7535
C 9.84076 -11.1176 21.7535
C 9.84104 11.1177 -21.7535
C -9.84049 -11.1177 -21.7535
C -16.5696 -4.73549 20.0123
C -16.5695 4.73559 -20.0123
C -16.5695 4.73559 20.0123
C -4.7355 -20.0123 -16.5699
C -4.7355 -20.0123 16.5699
C -4.73503 20.0123 -16.5698
C -4.73503 20.0123 16.5698
C -20.0122 -16.5699 -4.73554
C -20.0122 -16.5699 4.73554
C -20.0118 16.5698 -4.73555
C -20.0118 16.5698 4.73555
C 20.0124 -16.5698 -4.73555
C 20.0124 -16.5698 4.73555
C 20.0128 16.5699 -4.73554
C 20.0128 16.5699 4.73554
C 4.73558 -20.0123 -16.5698
C 4.73558 -20.0123 16.5698
C 4.73605 20.0123 -16.5699
C 4.73605 20.0123 16.5699
C 16.5701 -4.73559 -20.0123
C 16.5701 -4.73559 20.0123
C 16.5701 4.73549 -20.0123
C -16.5696 -4.73549 -20.0123
C -18.7453 -4.79643 18.9484
C -18.7452 4.79657 -18.9485
C -18.7452 4.79657 18.9485
C -4.79645 -18.9485 -18.7456
C -4.79645 -18.9485 18.7456
C -4.796 18.9484 -18.7455
C -4.796 18.9484 18.7455
C -18.9484 -18.7456 -4.7965
C -18.9484 -18.7456 4.7965
C -18.948 18.7455 -4.79649
C -18.948 18.7455 4.79649
C 18.9485 -18.7455 -4.79649
C 18.9485 -18.7455 4.79649
C 18.949 18.7456 -4.7965
C 18.949 18.7456 4.7965
C 4.79655 -18.9484 -18.7455
C 4.79655 -18.9484 18.7455
C 4.797 18.9485 -18.7456
C 4.797 18.9485 18.7456
C 18.7458 -4.79657 -18.9485
C 18.7458 -4.79657 18.9485
C 18.7458 4.79643 -18.9484
C -18.7453 -4.79643 -18.9484
C -17.3252 -6.77478 18.9358
C -17.3252 6.7749 -18.9359
C -17.3252 6.7749 18.9359
C -6.7748 -18.9359 -17.3255
C -6.7748 -18.9359 17.3255
C -6.77433 18.9358 -17.3254
C -6.77433 18.9358 17.3254
C -18.9357 -17.3255 -6.77484
C -18.9357 -17.3255 6.77484
C -18.9353 17.3255 -6.77484
C -18.9353 17.3255 6.77484
C 18.9359 -17.3255 -6.77484
C 18.9359 -17.3255 6.77484
C 18.9363 17.3255 -6.77484
C 18.9363 17.3255 6.77484
C 6.77488 -18.9358 -17.3254
C 6.77488 -18.9358 17.3254
C 6.77535 18.9359 -17.3255
C 6.77535 18.9359 17.3255
C 17.3257 -6.7749 -18.9359
C 17.3257 -6.7749 18.9359
C 17.3258 6.77478 -18.9358
C -17.3252 -6.77478 -18.9358
C -5.73482 -12.5626 24.275
C -5.7345 12.5625 -24.275
C -5.7345 12.5625 24.275
C -12.5625 -24.275 -5.73495
C -12.5625 -24.275 5.73495
C -12.562 24.275 -5.73492
C -12.562 24.275 5.73492
C -24.2747 -5.73481 -12.5624
C -24.2747 -5.73481 12.5624
C -24.2747 5.73505 -12.5626
C -24.2747 5.73505 12.5626
C 24.2753 -5.73505 -12.5626
C 24.2753 -5.73505 12.5626
C 24.2752 5.73481 -12.5624
C 24.2752 5.73481 12.5624
C 12.5625 -24.275 -5.73492
C 12.5625 -24.275 5.73492
C 12.5631 24.275 -5.73495
C 12.5631 24.275 5.73495
C 5.73505 -12.5625 -24.275
C 5.73505 -12.5625 24.275
C 5.73537 12.5626 -24.275
C -5.73482 -12.5626 -24.275
C -4.29425 -14.5064 24.338
C -4.29388 14.5063 -24.338
C -4.29388 14.5063 24.338
C -14.5064 -24.338 -4.29436
C -14.5064 -24.338 4.29436
C -14.5058 24.3379 -4.29432
C -14.5058 24.3379 4.29432
C -24.3377 -4.29421 -14.5062
C -24.3377 -4.29421 14.5062
C -24.3378 4.29447 -14.5065
C -24.3378 4.29447 14.5065
C 24.3383 -4.29447 -14.5065
C 24.3383 -4.29447 14.5065
C 24.3382 4.29421 -14.5062
C 24.3382 4.29421 14.5062
C 14.5064 -24.3379 -4.29432
C 14.5064 -24.3379 4.29432
C 14.5069 24.338 -4.29436
C 14.5069 24.338 4.29436
C 4.29443 -14.5063 -24.338
C 4.29443 -14.5063 24.338
C 4.29479 14.5064 -24.338
C -4.29425 -14.5064 -24.338
C -4.1667 -12.8887 26.094
C -4.16641 12.8886 -26.094
C -4.16641 12.8886 26.094
C -12.8887 -26.094 -4.16683
C -12.8887 -26.094 4.16683
C -12.8881 26.0939 -4.16682
C -12.8881 26.0939 4.16682
C -26.0937 -4.16676 -12.8886
C -26.0937 -4.16676 12.8886
C -26.0937 4.1669 -12.8887
C -26.0937 4.1669 12.8887
C 26.0942 -4.1669 -12.8887
C 26.0942 -4.1669 12.8887
C 26.0943 4.16676 -12.8886
C 26.0943 4.16676 12.8886
C 12.8887 -26.0939 -4.16682
C 12.8887 -26.0939 4.16682
C 12.8892 26.094 -4.16683
C 12.8892 26.094 4.16683
C 4.16696 -12.8886 -26.094
C 4.16696 -12.8886 26.094
C 4.16725 12.8887 -26.094
C -4.1667 -12.8887 -26.094
C -11.0227 -4.35545 24.1801
C -11.0226 4.35546 -24.1801
C -11.0226 4.35546 24.1801
C -4.35546 -24.1801 -11.0229
C -4.35546 -24.1801 11.0229
C -4.3549 24.1801 -11.0229
C -4.3549 24.1801 11.0229
C -24.18 -11.0229 -4.35541
C -24.18 -11.0229 4.35541
C -24.1797 11.0229 -4.3555
C -24.1797 11.0229 4.3555
C 24.1803 -11.0229 -4.3555
C 24.1803 -11.0229 4.3555
C 24.1805 11.0229 -4.35541
C 24.1805 11.0229 4.35541
C 4.35545 -24.1801 -11.0229
C 4.35545 -24.1801 11.0229
C 4.35601 24.1801 -11.0229
C 4.35601 24.1801 11.0229
C 11.0232 -4.35546 -24.1801
C 11.0232 -4.35546 24.1801
C 11.0232 4.35545 -24.1801
C -11.0227 -4.35545 -24.1801
C -9.83449 -6.52816 24.0302
C -9.83433 6.52813 -24.0302
C -9.83433 6.52813 24.0302
C -6.52814 -24.0302 -9.8347
C -6.52814 -24.0302 9.8347
C -6.5276 24.0302 -9.83467
C -6.5276 24.0302 9.83467
C -24.03 -9.83465 -6.52809
C -24.03 -9.83465 6.52809
C -24.0298 9.83472 -6.5282
C -24.0298 9.83472 6.5282
C 24.0304 -9.83472 -6.5282
C 24.0304 -9.83472 6.5282
C 24.0306 9.83465 -6.52809
C 24.0306 9.83465 6.52809
C 6.52815 -24.0302 -9.83467
C 6.52815 -24.0302 9.83467
C 6.52869 24.0302 -9.8347
C 6.52869 24.0302 9.8347
C 9.83488 -6.52813 -24.0302
C 9.83488 -6.52813 24.0302
C 9.83504 6.52816 -24.0302
C -9.83449 -6.52816 -24.0302
C -9.70405 -5.03597 26.0314