LAMMPS data file. CGCMM style. atom_style atomic generated by VMD/TopoTools v1.7 on Sun Jan 07 01:10:24 EST 2018
 408 atoms
 0 bonds
 0 angles
 0 dihedrals
 0 impropers
 1 atom types
 0 bond types
 0 angle types
 0 dihedral types
 0 improper types
 -23.500000 23.500000  xlo xhi
 -23.500000 23.500000  ylo yhi
 -23.500000 23.500000  zlo zhi

# Pair Coeffs
#
# 1  C

 Masses

 1 12.010700 # C

 Atoms # atomic

1 1 22.438307 10.414142 14.768202 # C
2 1 21.018286 6.994095 14.167193 # C
3 1 21.658297 8.241113 13.914190 # C
4 1 20.140274 6.913094 15.253209 # C
5 1 22.712309 11.030150 16.050219 # C
6 1 22.423306 11.335155 21.331291 # C
7 1 0.711010 12.735173 14.768202 # C
8 1 2.131029 16.155220 14.167193 # C
9 1 1.491020 14.908203 13.914190 # C
10 1 3.009041 16.235222 15.253209 # C
11 1 0.436006 12.119165 16.050219 # C
12 1 0.726010 11.814161 21.331291 # C
13 1 0.711010 10.414142 8.380115 # C
14 1 2.131029 6.994095 8.981122 # C
15 1 1.491020 8.241113 9.234126 # C
16 1 3.009041 6.913094 7.896108 # C
17 1 0.436006 11.030150 7.099097 # C
18 1 0.726010 11.335155 1.818025 # C
19 1 22.438307 12.735173 8.380115 # C
20 1 21.018286 16.155220 8.981122 # C
21 1 21.658297 14.908203 9.234126 # C
22 1 20.140274 16.235222 7.896108 # C
23 1 22.712309 12.119165 7.099097 # C
24 1 22.423306 11.814161 1.818025 # C
25 1 14.768202 22.438307 10.414142 # C
26 1 14.167193 21.018286 6.994095 # C
27 1 13.914190 21.658297 8.241113 # C
28 1 15.253209 20.140274 6.913094 # C
29 1 16.050219 22.712309 11.030150 # C
30 1 21.331291 22.423306 11.335155 # C
31 1 14.768202 0.711010 12.735173 # C
32 1 14.167193 2.131029 16.155220 # C
33 1 13.914190 1.491020 14.908203 # C
34 1 15.253209 3.009041 16.235222 # C
35 1 16.050219 0.436006 12.119165 # C
36 1 21.331291 0.726010 11.814161 # C
37 1 8.380115 0.711010 10.414142 # C
38 1 8.981122 2.131029 6.994095 # C
39 1 9.234126 1.491020 8.241113 # C
40 1 7.896108 3.009041 6.913094 # C
41 1 7.099097 0.436006 11.030150 # C
42 1 1.818025 0.726010 11.335155 # C
43 1 8.380115 22.438307 12.735173 # C
44 1 8.981122 21.018286 16.155220 # C
45 1 9.234126 21.658297 14.908203 # C
46 1 7.896108 20.140274 16.235222 # C
47 1 7.099097 22.712309 12.119165 # C
48 1 1.818025 22.423306 11.814161 # C
49 1 10.414142 14.768202 22.438307 # C
50 1 6.994095 14.167193 21.018286 # C
51 1 8.241113 13.914190 21.658297 # C
52 1 6.913094 15.253209 20.140274 # C
53 1 11.030150 16.050219 22.712309 # C
54 1 11.335155 21.331291 22.423306 # C
55 1 12.735173 14.768202 0.711010 # C
56 1 16.155220 14.167193 2.131029 # C
57 1 14.908203 13.914190 1.491020 # C
58 1 16.235222 15.253209 3.009041 # C
59 1 12.119165 16.050219 0.436006 # C
60 1 11.814161 21.331291 0.726010 # C
61 1 10.414142 8.380115 0.711010 # C
62 1 6.994095 8.981122 2.131029 # C
63 1 8.241113 9.234126 1.491020 # C
64 1 6.913094 7.896108 3.009041 # C
65 1 11.030150 7.099097 0.436006 # C
66 1 11.335155 1.818025 0.726010 # C
67 1 12.735173 8.380115 22.438307 # C
68 1 16.155220 8.981122 21.018286 # C
69 1 14.908203 9.234126 21.658297 # C
70 1 16.235222 7.896108 20.140274 # C
71 1 12.119165 7.099097 22.712309 # C
72 1 11.814161 1.818025 22.423306 # C
73 1 21.988302 10.863149 19.955273 # C
74 1 18.568254 9.443129 20.556280 # C
75 1 19.816271 10.083138 20.809284 # C
76 1 18.488253 8.565116 19.470264 # C
77 1 22.605309 11.138152 18.674255 # C
78 1 22.910313 10.848148 13.393182 # C
79 1 1.160016 12.285168 19.955273 # C
80 1 4.580062 13.705187 20.556280 # C
81 1 3.333045 13.066177 20.809284 # C
82 1 4.661063 14.583200 19.470264 # C
83 1 0.544007 12.011165 18.674255 # C
84 1 0.239003 12.300168 13.393182 # C
85 1 21.988302 12.285168 3.194043 # C
86 1 18.568254 13.705187 2.593035 # C
87 1 19.816271 13.066177 2.340032 # C
88 1 18.488253 14.583200 3.678050 # C
89 1 22.605309 12.011165 4.475061 # C
90 1 22.910313 12.300168 9.756133 # C
91 1 1.160016 10.863149 3.194043 # C
92 1 4.580062 9.443129 2.593035 # C
93 1 3.333045 10.083138 2.340032 # C
94 1 4.661063 8.565116 3.678050 # C
95 1 0.544007 11.138152 4.475061 # C
96 1 0.239003 10.848148 9.756133 # C
97 1 10.863149 3.194043 1.160016 # C
98 1 9.443129 2.593035 4.580062 # C
99 1 10.083138 2.340032 3.333045 # C
100 1 8.565116 3.678050 4.661063 # C
101 1 11.138152 4.475061 0.544007 # C
102 1 10.848148 9.756133 0.239003 # C
103 1 12.285168 3.194043 21.988302 # C
104 1 13.705187 2.593035 18.568254 # C
105 1 13.066177 2.340032 19.816271 # C
106 1 14.583200 3.678050 18.488253 # C
107 1 12.011165 4.475061 22.605309 # C
108 1 12.300168 9.756133 22.910313 # C
109 1 12.285168 19.955273 1.160016 # C
110 1 13.705187 20.556280 4.580062 # C
111 1 13.066177 20.809284 3.333045 # C
112 1 14.583200 19.470264 4.661063 # C
113 1 12.011165 18.674255 0.544007 # C
114 1 12.300168 13.393182 0.239003 # C
115 1 10.863149 19.955273 21.988302 # C
116 1 9.443129 20.556280 18.568254 # C
117 1 10.083138 20.809284 19.816271 # C
118 1 8.565116 19.470264 18.488253 # C
119 1 11.138152 18.674255 22.605309 # C
120 1 10.848148 13.393182 22.910313 # C
121 1 3.194043 21.988302 12.285168 # C
122 1 2.593035 18.568254 13.705187 # C
123 1 2.340032 19.816271 13.066177 # C
124 1 3.678050 18.488253 14.583200 # C
125 1 4.475061 22.605309 12.011165 # C
126 1 9.756133 22.910313 12.300168 # C
127 1 3.194043 1.160016 10.863149 # C
128 1 2.593035 4.580062 9.443129 # C
129 1 2.340032 3.333045 10.083138 # C
130 1 3.678050 4.661063 8.565116 # C
131 1 4.475061 0.544007 11.138152 # C
132 1 9.756133 0.239003 10.848148 # C
133 1 19.955273 21.988302 10.863149 # C
134 1 20.556280 18.568254 9.443129 # C
135 1 20.809284 19.816271 10.083138 # C
136 1 19.470264 18.488253 8.565116 # C
137 1 18.674255 22.605309 11.138152 # C
138 1 13.393182 22.910313 10.848148 # C
139 1 19.955273 1.160016 12.285168 # C
140 1 20.556280 4.580062 13.705187 # C
141 1 20.809284 3.333045 13.066177 # C
142 1 19.470264 4.661063 14.583200 # C
143 1 18.674255 0.544007 12.011165 # C
144 1 13.393182 0.239003 12.300168 # C
145 1 12.285168 1.160016 19.955273 # C
146 1 13.705187 4.580062 20.556280 # C
147 1 13.066177 3.333045 20.809284 # C
148 1 14.583200 4.661063 19.470264 # C
149 1 12.011165 0.544007 18.674255 # C
150 1 12.300168 0.239003 13.393182 # C
151 1 10.863149 21.988302 19.955273 # C
152 1 9.443129 18.568254 20.556280 # C
153 1 10.083138 19.816271 20.809284 # C
154 1 8.565116 18.488253 19.470264 # C
155 1 11.138152 22.605309 18.674255 # C
156 1 10.848148 22.910313 13.393182 # C
157 1 10.863149 1.160016 3.194043 # C
158 1 9.443129 4.580062 2.593035 # C
159 1 10.083138 3.333045 2.340032 # C
160 1 8.565116 4.661063 3.678050 # C
161 1 11.138152 0.544007 4.475061 # C
162 1 10.848148 0.239003 9.756133 # C
163 1 12.285168 21.988302 3.194043 # C
164 1 13.705187 18.568254 2.593035 # C
165 1 13.066177 19.816271 2.340032 # C
166 1 14.583200 18.488253 3.678050 # C
167 1 12.011165 22.605309 4.475061 # C
168 1 12.300168 22.910313 9.756133 # C
169 1 19.955273 12.285168 1.160016 # C
170 1 20.556280 13.705187 4.580062 # C
171 1 20.809284 13.066177 3.333045 # C
172 1 19.470264 14.583200 4.661063 # C
173 1 18.674255 12.011165 0.544007 # C
174 1 13.393182 12.300168 0.239003 # C
175 1 19.955273 10.863149 21.988302 # C
176 1 20.556280 9.443129 18.568254 # C
177 1 20.809284 10.083138 19.816271 # C
178 1 19.470264 8.565116 18.488253 # C
179 1 18.674255 11.138152 22.605309 # C
180 1 13.393182 10.848148 22.910313 # C
181 1 3.194043 10.863149 1.160016 # C
182 1 2.593035 9.443129 4.580062 # C
183 1 2.340032 10.083138 3.333045 # C
184 1 3.678050 8.565116 4.661063 # C
185 1 4.475061 11.138152 0.544007 # C
186 1 9.756133 10.848148 0.239003 # C
187 1 3.194043 12.285168 21.988302 # C
188 1 2.593035 13.705187 18.568254 # C
189 1 2.340032 13.066177 19.816271 # C
190 1 3.678050 14.583200 18.488253 # C
191 1 4.475061 12.011165 22.605309 # C
192 1 9.756133 12.300168 22.910313 # C
193 1 1.160016 19.955273 12.285168 # C
194 1 4.580062 20.556280 13.705187 # C
195 1 3.333045 20.809284 13.066177 # C
196 1 4.661063 19.470264 14.583200 # C
197 1 0.544007 18.674255 12.011165 # C
198 1 0.239003 13.393182 12.300168 # C
199 1 21.988302 19.955273 10.863149 # C
200 1 18.568254 20.556280 9.443129 # C
201 1 19.816271 20.809284 10.083138 # C
202 1 18.488253 19.470264 8.565116 # C
203 1 22.605309 18.674255 11.138152 # C
204 1 22.910313 13.393182 10.848148 # C
205 1 1.160016 3.194043 10.863149 # C
206 1 4.580062 2.593035 9.443129 # C
207 1 3.333045 2.340032 10.083138 # C
208 1 4.661063 3.678050 8.565116 # C
209 1 0.544007 4.475061 11.138152 # C
210 1 0.239003 9.756133 10.848148 # C
211 1 21.988302 3.194043 12.285168 # C
212 1 18.568254 2.593035 13.705187 # C
213 1 19.816271 2.340032 13.066177 # C
214 1 18.488253 3.678050 14.583200 # C
215 1 22.605309 4.475061 12.011165 # C
216 1 22.910313 9.756133 12.300168 # C
217 1 12.735173 0.711010 14.768202 # C
218 1 16.155220 2.131029 14.167193 # C
219 1 14.908203 1.491020 13.914190 # C
220 1 16.235222 3.009041 15.253209 # C
221 1 12.119165 0.436006 16.050219 # C
222 1 11.814161 0.726010 21.331291 # C
223 1 10.414142 22.438307 14.768202 # C
224 1 6.994095 21.018286 14.167193 # C
225 1 8.241113 21.658297 13.914190 # C
226 1 6.913094 20.140274 15.253209 # C
227 1 11.030150 22.712309 16.050219 # C
228 1 11.335155 22.423306 21.331291 # C
229 1 12.735173 22.438307 8.380115 # C
230 1 16.155220 21.018286 8.981122 # C
231 1 14.908203 21.658297 9.234126 # C
232 1 16.235222 20.140274 7.896108 # C
233 1 12.119165 22.712309 7.099097 # C
234 1 11.814161 22.423306 1.818025 # C
235 1 10.414142 0.711010 8.380115 # C
236 1 6.994095 2.131029 8.981122 # C
237 1 8.241113 1.491020 9.234126 # C
238 1 6.913094 3.009041 7.896108 # C
239 1 11.030150 0.436006 7.099097 # C
240 1 11.335155 0.726010 1.818025 # C
241 1 0.711010 8.380115 10.414142 # C
242 1 2.131029 8.981122 6.994095 # C
243 1 1.491020 9.234126 8.241113 # C
244 1 3.009041 7.896108 6.913094 # C
245 1 0.436006 7.099097 11.030150 # C
246 1 0.726010 1.818025 11.335155 # C
247 1 22.438307 8.380115 12.735173 # C
248 1 21.018286 8.981122 16.155220 # C
249 1 21.658297 9.234126 14.908203 # C
250 1 20.140274 7.896108 16.235222 # C
251 1 22.712309 7.099097 12.119165 # C
252 1 22.423306 1.818025 11.814161 # C
253 1 22.438307 14.768202 10.414142 # C
254 1 21.018286 14.167193 6.994095 # C
255 1 21.658297 13.914190 8.241113 # C
256 1 20.140274 15.253209 6.913094 # C
257 1 22.712309 16.050219 11.030150 # C
258 1 22.423306 21.331291 11.335155 # C
259 1 0.711010 14.768202 12.735173 # C
260 1 2.131029 14.167193 16.155220 # C
261 1 1.491020 13.914190 14.908203 # C
262 1 3.009041 15.253209 16.235222 # C
263 1 0.436006 16.050219 12.119165 # C
264 1 0.726010 21.331291 11.814161 # C
265 1 8.380115 12.735173 22.438307 # C
266 1 8.981122 16.155220 21.018286 # C
267 1 9.234126 14.908203 21.658297 # C
268 1 7.896108 16.235222 20.140274 # C
269 1 7.099097 12.119165 22.712309 # C
270 1 1.818025 11.814161 22.423306 # C
271 1 8.380115 10.414142 0.711010 # C
272 1 8.981122 6.994095 2.131029 # C
273 1 9.234126 8.241113 1.491020 # C
274 1 7.896108 6.913094 3.009041 # C
275 1 7.099097 11.030150 0.436006 # C
276 1 1.818025 11.335155 0.726010 # C
277 1 14.768202 12.735173 0.711010 # C
278 1 14.167193 16.155220 2.131029 # C
279 1 13.914190 14.908203 1.491020 # C
280 1 15.253209 16.235222 3.009041 # C
281 1 16.050219 12.119165 0.436006 # C
282 1 21.331291 11.814161 0.726010 # C
283 1 14.768202 10.414142 22.438307 # C
284 1 14.167193 6.994095 21.018286 # C
285 1 13.914190 8.241113 21.658297 # C
286 1 15.253209 6.913094 20.140274 # C
287 1 16.050219 11.030150 22.712309 # C
288 1 21.331291 11.335155 22.423306 # C
289 1 21.246290 5.787079 13.477185 # C
290 1 19.328262 5.787079 15.395210 # C
291 1 18.344250 5.787079 16.379225 # C
292 1 1.903026 17.362238 13.477185 # C
293 1 3.820052 17.362238 15.395210 # C
294 1 4.805066 17.362238 16.379225 # C
295 1 1.903026 5.787079 9.672132 # C
296 1 3.820052 5.787079 7.754106 # C
297 1 4.805066 5.787079 6.769093 # C
298 1 21.246290 17.362238 9.672132 # C
299 1 19.328262 17.362238 7.754106 # C
300 1 18.344250 17.362238 6.769093 # C
301 1 13.477185 21.246290 5.787079 # C
302 1 15.395210 19.328262 5.787079 # C
303 1 16.379225 18.344250 5.787079 # C
304 1 13.477185 1.903026 17.362238 # C
305 1 15.395210 3.820052 17.362238 # C
306 1 16.379225 4.805066 17.362238 # C
307 1 9.672132 1.903026 5.787079 # C
308 1 7.754106 3.820052 5.787079 # C
309 1 6.769093 4.805066 5.787079 # C
310 1 9.672132 21.246290 17.362238 # C
311 1 7.754106 19.328262 17.362238 # C
312 1 6.769093 18.344250 17.362238 # C
313 1 5.787079 13.477185 21.246290 # C
314 1 5.787079 15.395210 19.328262 # C
315 1 5.787079 16.379225 18.344250 # C
316 1 17.362238 13.477185 1.903026 # C
317 1 17.362238 15.395210 3.820052 # C
318 1 17.362238 16.379225 4.805066 # C
319 1 5.787079 9.672132 1.903026 # C
320 1 5.787079 7.754106 3.820052 # C
321 1 5.787079 6.769093 4.805066 # C
322 1 17.362238 9.672132 21.246290 # C
323 1 17.362238 7.754106 19.328262 # C
324 1 17.362238 6.769093 18.344250 # C
325 1 13.477185 5.787079 21.246290 # C
326 1 15.395210 5.787079 19.328262 # C
327 1 16.379225 5.787079 18.344250 # C
328 1 9.672132 17.362238 21.246290 # C
329 1 7.754106 17.362238 19.328262 # C
330 1 6.769093 17.362238 18.344250 # C
331 1 9.672132 5.787079 1.903026 # C
332 1 7.754106 5.787079 3.820052 # C
333 1 6.769093 5.787079 4.805066 # C
334 1 13.477185 17.362238 1.903026 # C
335 1 15.395210 17.362238 3.820052 # C
336 1 16.379225 17.362238 4.805066 # C
337 1 21.246290 13.477185 5.787079 # C
338 1 19.328262 15.395210 5.787079 # C
339 1 18.344250 16.379225 5.787079 # C
340 1 21.246290 9.672132 17.362238 # C
341 1 19.328262 7.754106 17.362238 # C
342 1 18.344250 6.769093 17.362238 # C
343 1 1.903026 9.672132 5.787079 # C
344 1 3.820052 7.754106 5.787079 # C
345 1 4.805066 6.769093 5.787079 # C
346 1 1.903026 13.477185 17.362238 # C
347 1 3.820052 15.395210 17.362238 # C
348 1 4.805066 16.379225 17.362238 # C
349 1 5.787079 21.246290 13.477185 # C
350 1 5.787079 19.328262 15.395210 # C
351 1 5.787079 18.344250 16.379225 # C
352 1 17.362238 21.246290 9.672132 # C
353 1 17.362238 19.328262 7.754106 # C
354 1 17.362238 18.344250 6.769093 # C
355 1 5.787079 1.903026 9.672132 # C
356 1 5.787079 3.820052 7.754106 # C
357 1 5.787079 4.805066 6.769093 # C
358 1 17.362238 1.903026 13.477185 # C
359 1 17.362238 3.820052 15.395210 # C
360 1 17.362238 4.805066 16.379225 # C
361 1 22.230303 10.656146 17.362238 # C
362 1 0.918012 12.493171 17.362238 # C
363 1 0.918012 10.656146 5.787079 # C
364 1 22.230303 12.493171 5.787079 # C
365 1 17.362238 22.230303 10.656146 # C
366 1 17.362238 0.918012 12.493171 # C
367 1 5.787079 0.918012 10.656146 # C
368 1 5.787079 22.230303 12.493171 # C
369 1 10.656146 17.362238 22.230303 # C
370 1 12.493171 17.362238 0.918012 # C
371 1 10.656146 5.787079 0.918012 # C
372 1 12.493171 5.787079 22.230303 # C
373 1 12.493171 0.918012 17.362238 # C
374 1 10.656146 22.230303 17.362238 # C
375 1 10.656146 0.918012 5.787079 # C
376 1 12.493171 22.230303 5.787079 # C
377 1 17.362238 12.493171 0.918012 # C
378 1 17.362238 10.656146 22.230303 # C
379 1 5.787079 10.656146 0.918012 # C
380 1 5.787079 12.493171 22.230303 # C
381 1 0.918012 17.362238 12.493171 # C
382 1 22.230303 17.362238 10.656146 # C
383 1 0.918012 5.787079 10.656146 # C
384 1 22.230303 5.787079 12.493171 # C
385 1 23.875010 11.814161 21.331291 # C
386 1 -0.725695 11.335155 21.331291 # C
387 1 -0.725695 11.814161 1.818025 # C
388 1 23.875010 11.335155 1.818025 # C
389 1 21.331291 23.875010 11.814161 # C
390 1 21.331291 -0.725695 11.335155 # C
391 1 1.818025 -0.725695 11.814161 # C
392 1 1.818025 23.875010 11.335155 # C
393 1 11.814161 21.331291 23.875010 # C
394 1 11.335155 21.331291 -0.725695 # C
395 1 11.814161 1.818025 -0.725695 # C
396 1 11.335155 1.818025 23.875010 # C
397 1 -0.543692 11.138152 18.674255 # C
398 1 -0.543692 12.011165 4.475061 # C
399 1 12.011165 4.475061 -0.543692 # C
400 1 11.138152 18.674255 -0.543692 # C
401 1 4.475061 -0.543692 12.011165 # C
402 1 18.674255 -0.543692 11.138152 # C
403 1 10.848148 -0.238688 13.393182 # C
404 1 12.300168 -0.238688 9.756133 # C
405 1 13.393182 10.848148 -0.238688 # C
406 1 9.756133 12.300168 -0.238688 # C
407 1 -0.238688 13.393182 10.848148 # C
408 1 -0.238688 9.756133 12.300168 # C

