read_data       ${fname}
read_data       lammps.xyz
  orthogonal box = (-23.5 -23.5 -23.5) to (23.5 23.5 23.5)
  1 by 1 by 1 MPI processor grid
  reading atoms ...
  408 atoms
change_box 	all triclinic
  triclinic box = (-23.5 -23.5 -23.5) to (23.5 23.5 23.5) with tilt (0 0 0)

include potential.mod
# NOTE: This script can be modified for different pair styles
# See in.elastic for more info.

# Choose potential
pair_style     rebo
pair_coeff     * * CH.airebo C
Reading potential file CH.airebo with DATE: 2011-10-25

#pair_style     lcbop
#pair_coeff     C.lcbop
#pair_style     tersoff
#pair_coeff     BNC.tersoff


# Setup neighbor style
neighbor 1.0 nsq
neigh_modify once no every 1 delay 0 check yes

# Setup minimization style
min_style	     cg
min_modify	     dmax ${dmax} line quadratic
min_modify	     dmax 0.01 line quadratic

# Setup output
thermo		500
thermo_style custom step temp pe press pxx pyy pzz pxy pxz pyz lx ly lz vol
thermo_modify norm no


# Output
dump            1 all xtc 100 traj.xtc
dump            2 all xyz 2000 relaxed.xyz
#dump            4 all atom 10 dump.atom

# Compute initial state
fix 3 all box/relax  aniso 0.0
minimize ${etol} ${ftol} ${maxiter} ${maxeval}
minimize 0 ${ftol} ${maxiter} ${maxeval}
minimize 0 1e-10 ${maxiter} ${maxeval}
minimize 0 1e-10 10000000 ${maxeval}
minimize 0 1e-10 10000000 10000000
Neighbor list info ...
  update every 1 steps, delay 0 steps, check yes
  max neighbors/atom: 2000, page size: 100000
  master list distance cutoff = 7
  ghost atom cutoff = 7
  1 neighbor lists, perpetual/occasional/extra = 1 0 0
  (1) pair rebo, perpetual
      attributes: full, newton on, ghost
      pair build: full/nsq/ghost
      stencil: none
      bin: none
Per MPI rank memory allocation (min/avg/max) = 5.938 | 5.938 | 5.938 Mbytes
Step Temp PotEng Press Pxx Pyy Pzz Pxy Pxz Pyz Lx Ly Lz Volume 
       0            0   -2687.4453   -591.73234   -591.73234   -591.73234   -591.73234    23.802792    23.802792    23.802792           47           47           47       103823 
     500            0   -2720.2075   -1.7743826   -1.7743826   -1.7743826   -1.7743826    11.637887    11.637887    11.637887    47.101989    47.101989    47.101989    104500.35 
    1000            0   -2722.9761    19.526492    19.526492    19.526492    19.526492    11.495356    11.495356    11.495356    47.186574    47.186574    47.186574    105064.34 
    1500            0   -2724.7299    15.062439    15.663037    15.073264    14.451015    8.1143286    8.1171493      8.11125     47.26152    47.261743    47.261978    105567.27 
    2000            0   -2725.8181    15.167284    15.841022    15.179276    14.481555    4.9822331    4.9852752    4.9785131    47.312356    47.312608    47.312873    105908.49 
    2500            0   -2726.8434    13.837169    14.723592    13.852793    12.935121    2.2342813    2.2380012    2.2289667    47.363643    47.363977    47.364328    106253.84 
    3000            0   -2727.8601    13.585764     14.30643    13.598367    12.852493  0.048493312  0.051226289  0.043794851    47.417798    47.418072    47.418361    106618.32 
    3500            0   -2728.9385    12.710883    13.524653    12.725037    11.882958   -1.5751754   -1.5725141    -1.580955    47.479662    47.479975    47.480305    107036.43 
    4000            0   -2730.3013     11.66843    12.651832    11.685506    10.667952   -2.6052161   -2.6027435   -2.6129017     47.56617    47.566555    47.566961    107623.05 
    4500            0     -2732.17    2.3223875   -3.3368026    2.2217049    8.0822601   -2.2822676   -2.2899581   -2.2341765    47.710059    47.707769    47.705355    108584.09 
    5000            0   -2732.9153    -8.843777   -13.773157   -8.9797276   -3.7784461   -1.6669875   -1.6712628   -1.6251555    47.776569     47.77456     47.77238    109040.68 
    5500            0   -2733.5718    2.6148293    2.8362232    2.6218716    2.3863931  -0.85523259  -0.85509345  -0.85701128    47.834387     47.83448     47.83458    109451.88 
    6000            0   -2734.0785   -10.446818   -6.2114997   -10.275447   -14.853507  -0.27944817  -0.27849012  -0.31146349    47.887667    47.889431    47.891418    109830.02 
    6500            0   -2734.4317   -9.5594609   -12.634856   -9.6878318   -6.3556947   0.13035477   0.13000026   0.15171595     47.92996    47.928669    47.927208     110099.3 
    7000            0   -2734.7552        3.902    4.4523444    3.9287713    3.3248843   0.54442985   0.54445694    0.5410047    47.964129    47.964364    47.964634    110345.95 
    7500            0   -2735.0239   -14.861266   -17.688231   -15.007355   -11.888212   0.67900461   0.67902595   0.69462579    48.003769    48.002565    48.001163    110609.27 
    8000            0   -2735.4756    6.8821174    13.905229    7.1323101  -0.39118719     1.165358    1.4944563    1.6248869    48.058762    48.061961    48.065477    111021.56 
    8500            0   -2736.0118  -0.92594805   -4.2058158   -3.9261253    5.3540969   -3.0845211   -3.1994086   -2.7744719    48.159149    48.159193     48.15474    111685.56 
    9000            0   -2736.2398     5.113914    8.7175689    8.7642167   -2.1400437    0.8497002   0.83720413    0.9441943    48.205453    48.205415    48.209864    112028.34 
    9500            0   -2736.4203   -6.8095209   -7.4415785    -8.231196   -4.7557882   -1.5283819   -1.8587906   -1.5983602    48.258672    48.258973    48.258849    112390.71 
   10000            0   -2736.5367   -13.283131   -15.543181   -12.026401   -12.279812  -0.45124341   -1.0483408  -0.91053345    48.301431    48.299334    48.300389    112681.28 
   10500            0   -2736.5995   -3.1594881    3.2914739   -8.3217999   -4.4481383  -0.93686529  -0.67813227  -0.30191619    48.322305    48.328346    48.325863    112857.18 
   11000            0   -2736.6495    4.7814379     4.391618    3.9959956    5.9567002   0.72197567   0.78431663   0.42919143    48.350698    48.350289    48.350054    113031.32 
   11500            0   -2736.6983    7.5770182    8.3370248    7.4351921    6.9588378   -1.5516401   -2.7466579   -1.6787196    48.389471    48.389523    48.390834    113309.24 
   12000            0   -2736.7103    1.1906822  -0.96794756   0.82748773    3.7125063   0.25308586  0.089557773   0.12920769    48.406249    48.405539    48.403881    113416.61 
   12500            0   -2736.7211   0.30608193   0.30822932   0.36560903   0.24440743   0.16682484   0.22173732   0.36419636    48.418391    48.418486    48.418376    113509.39 
   13000            0   -2736.7327   -2.8513129   -6.1290183    2.0710644   -4.4959848  -0.04494284   0.15719897   0.16885126    48.419788     48.41493    48.418788    113505.29 
   13500            0   -2736.7523   -6.1231129   -6.2398791   -5.7406009   -6.3888588  -0.19905652   0.88943918   0.48969483    48.413403    48.412623    48.412974    113471.29 
   14000            0   -2736.7683 -0.098966563  -0.24816901  -0.28083782   0.23210715   0.74471067  -0.65573164   -0.5158864    48.406574    48.406581    48.406257    113425.38 
   14500            0   -2736.7971    0.6825116   0.20930385    2.1799012   -0.3416703    1.6605566    1.2916885    1.9681661    48.396886    48.396286    48.396421    113355.53 
   15000            0   -2736.8349    5.0086784    2.4199176    5.9743602    6.6317573   -2.0384894    -1.765261   -2.2395416    48.381012    48.379769    48.379194    113239.35 
   15500            0   -2736.8755     3.292416    1.8723775     5.062954    2.9419165  -0.74904454   -0.8421405  -0.54986823    48.363245     48.36143    48.362721    113116.33 
   16000            0   -2736.9184      3.97096    4.2272424    3.6009093    4.0847284  -0.70412701    1.5533139  -0.15725529    48.337216    48.336586    48.337419    112938.25 
   16500            0   -2736.9497  -0.74675927  -0.73244695  -0.74301122  -0.76481965   0.94419749  -0.30062515  -0.41990029    48.309496    48.309801    48.309653    112746.14 
   17000            0   -2736.9654  -0.34798018  -0.74381051  -0.14969143  -0.15043862  -0.54177124  -0.38919227  -0.32186022    48.271562    48.271055    48.270949    112477.07 
   17500            0   -2736.9655  0.027694642  0.027418952  0.023109273  0.032555701  0.078793075 0.0082593055  0.021457191    48.270608    48.270462    48.270479    112472.37 
   18000            0   -2736.9656  0.037522318 -0.055595471  -0.50164475   0.66980718  0.067799056   0.11071041  0.055756204    48.270185    48.270292    48.269665    112469.09 
   18500            0   -2736.9664   0.48265774   0.57993123    0.4712386    0.3968034   0.59430981   0.79100975   0.69113226    48.269905    48.269878    48.270011    112468.28 
   19000            0   -2736.9808    4.3603899    3.6762116    3.8395871    5.5653711   0.29654338    1.2218527   0.68934561    48.254718    48.254637    48.253779     112359.6 
   19500            0   -2736.9929    1.4169527    4.4378009   -1.5341794    1.3472365    -1.155602 -0.015963224  -0.81518166    48.236771    48.238473    48.237716    112242.81 
   20000            0   -2736.9972   0.14497843    -1.035598     0.644814    0.8257193  0.088125203  -0.33006668  -0.13773492    48.223155    48.220465    48.221863    112132.37 
   20500            0   -2736.9974  -0.31148424    -0.378531  -0.28312138  -0.27280033 -0.011118268  0.031753109 -0.028630739    48.223414    48.221509    48.222986    112138.01 
   21000            0   -2736.9974  0.063888354  -0.16768789   0.44769485 -0.088341898   0.15175478   0.10830733   0.18226833    48.224013    48.221954    48.223623    112141.92 
   21500            0   -2736.9975 -0.0052633728   0.29236248  -0.20675202  -0.10140057  -0.12068149  -0.15254118 -0.00037846808    48.222512    48.221021    48.222219       112133 
   22000            0   -2736.9976   0.55732242   0.50369552   0.57380163   0.59447012 -0.014193948  0.080324008  0.073756252    48.223186    48.221377    48.222759    112136.65 
   22500            0   -2736.9977 -0.0033123317   0.12352844  -0.09333227 -0.040133163 -0.010511376  -0.12597255 -0.088122899     48.22185    48.220185    48.221629    112128.14 
   23000            0   -2736.9978 0.0039523382 -0.090767566  0.039822847  0.062801734   0.09686837   0.17515228   0.11792759    48.222531    48.220699    48.222081    112131.97 
   23500            0   -2736.9979 -0.040633311  -0.28944203  0.091598318  0.075943779  0.025643152  0.061453056  0.064964348     48.22258    48.220592    48.222004    112131.66 
   24000            0   -2736.9979 0.00045779225 0.0029639645 -0.0014521967 -0.00013839099   0.11531155   0.07528243  0.067538705    48.221871    48.220063    48.221496     112127.6 
   24500            0    -2736.998 -0.00097704362   -0.0015122  0.012030018 -0.013448949  0.096742964  0.077816412   0.10510932    48.222106    48.220322    48.221733    112129.29 
   25000            0    -2736.998  0.051369597   0.11657892  -0.12716816   0.16469803  0.048851941  0.084120237  0.079361785    48.221867    48.220309    48.221514     112128.2 
   25500            0    -2736.998  -0.01816052 -0.0080378992 -0.011711739 -0.034731922  0.051923813  0.012924277  0.023367429     48.22194    48.220214    48.221634    112128.43 
   26000            0   -2736.9981 -0.0029900836  0.010743894 -0.013121458 -0.0065926866 -0.065699461 0.0012820589  -0.14218711    48.221764    48.220286    48.221611    112128.13 
   26500            0   -2736.9981 -0.019162208   0.29332898  -0.35067961 -0.00013599337  0.054498997  0.037406875  0.046734842    48.221871    48.220221    48.221577    112128.15 
   27000            0   -2736.9982 0.0068644244 -0.0097349929 0.0033845727  0.026943693  0.070841516  0.015389103  0.088655871     48.22198    48.219791    48.221335    112126.84 
   27500            0   -2736.9982  -0.19179177  -0.14504608   -0.1842639  -0.24606534  0.039156212  0.092658117   0.44928397    48.222305    48.219341    48.221118    112126.05 
   28000            0   -2736.9984   0.02607957  0.025390431  0.026285118   0.02656316 -0.0024011367 0.0052721944  0.020601279    48.220646    48.218934    48.220318    112119.38 
   28500            0   -2736.9984 -0.00013835261 0.0036340075 -0.006936068 0.0028870027  0.011764036  -0.00238907 -0.028603622    48.220489    48.218803    48.220182     112118.4 
   29000            0   -2736.9984  0.063030302 -0.047394995   0.14254518  0.093940724 -0.025120745 -0.0074537082 -0.0038458488    48.220634    48.218765    48.220209    112118.71 
   29500            0   -2736.9984 0.0016118257 0.0073541215 -0.0052943558 0.0027757113  0.014043462  -0.01089168   0.01053518    48.220634    48.218861    48.220264    112119.06 
   30000            0   -2736.9984  0.004151342 0.0069945322 0.0073643745 -0.0019048807 0.0069682227 -0.0014639645  0.028652572    48.220403     48.21864    48.220042    112117.49 
   30500            0   -2736.9984 -0.016892794   0.11450963 -0.065732595 -0.099455413 0.0026218645   -0.0281131 -0.0034327051    48.220466    48.218759    48.220178    112118.23 
   31000            0   -2736.9984 0.0017339712 0.0033745078 -0.003436979 0.0052643847  0.010093255 -0.010056907 0.0027363213    48.220598    48.218836    48.220237    112118.85 
   31500            0   -2736.9985 -0.014142152 -0.012725084 -0.014951002 -0.014750369 0.0015690385  0.012899929 0.0036818344    48.220528    48.218727     48.22014    112118.21 
   32000            0   -2736.9985 -0.023460733 -0.015819561 -0.020129748  -0.03443289  -0.03443595 -0.0084550561 -0.014094516    48.220564    48.218784    48.220188    112118.54 
   32500            0   -2736.9985 0.0089645899 0.0092078507 0.0090813342 0.0086045848 -0.010245959 -0.00064337162  -0.00831372    48.220547    48.218783     48.22019     112118.5 
   33000            0   -2736.9985  0.081712342   0.11455121   0.11433837  0.016247451  -0.00239781 0.0017059478 -0.018029769    48.220541    48.218764    48.220213     112118.5 
   33500            0   -2736.9985 -0.054791945 -0.028685792 -0.060588079 -0.075101965  0.021204438 -0.002302279 -0.014647836    48.220591    48.218782    48.220204    112118.64 
   34000            0   -2736.9985 -0.0011699386 -0.0052949151 -0.0077042467 0.0094893459 4.3439671e-06 -0.019317856 -0.0091191262    48.220512    48.218745    48.220134    112118.21 
   34500            0   -2736.9985 0.00080963966 0.00088223828 0.0010191176 0.0005275631   0.03089957 0.00073183048 0.0053362219    48.220534    48.218749    48.220188    112118.39 
   35000            0   -2736.9985 0.0024893038 -0.00093716136  0.012321121 -0.0039160482 -0.031307118  0.010981786 0.0086001729    48.220498    48.218789    48.220158    112118.33 
   35500            0   -2736.9985 -0.013297082 -0.015415676 -0.011548959 -0.012926611 -0.0042710925  0.013348011 -0.0029469415     48.22036     48.21855    48.219997    112117.08 
   36000            0   -2736.9985  0.031503976  0.015150487  0.035722581   0.04363886 -0.0020222274 -0.0024084727 -0.011599591     48.22067    48.218895    48.220285    112119.27 
   36500            0   -2736.9985 0.0004778159 0.0035561175 -0.0043311956 0.0022085258   0.00531871 -0.032248667 -0.017783117    48.220409     48.21864    48.220038     112117.5 
   37000            0   -2736.9985  0.061693192  0.022995895  0.069612472  0.092471208 -0.0068965327 -0.014757582 0.0017742847    48.220452    48.218658    48.220046    112117.66 
   37500            0   -2736.9985 0.0039556374 0.0038316365 0.0037879511 0.0042473247 -0.005343569 -0.0034024774 -0.0056006459    48.220486    48.218707    48.220111       112118 
   38000            0   -2736.9985 -0.002263224 -0.00061658684 -0.022021333  0.015848248 -0.0019721524 -0.0019195408 0.0001315213    48.220473    48.218708    48.220096    112117.94 
   38500            0   -2736.9985 0.0051442172  0.031505587 -0.026667088  0.010594152   -0.0134142 -0.030027847 -0.018346161    48.220446     48.21871    48.220108    112117.91 
   39000            0   -2736.9985  0.010244197     0.013278 -0.013827676  0.031282268 -0.004232988  0.017868079 -0.0020113905    48.220496    48.218742    48.220125    112118.14 
   39500            0   -2736.9985 -0.016843794  0.061166354  -0.06697779 -0.044719946  0.041730585  0.014510354  0.021128375    48.220433    48.218804    48.220189    112118.29 
   40000            0   -2736.9985 0.0017102695  0.000639642 0.0013945676 0.0030965989  0.010932615 0.0059912022 0.00091912336    48.220444    48.218715    48.220112    112117.93 
   40500            0   -2736.9985 0.0017901836 0.0010061506 0.0012703408 0.0030940593 -0.0065553131 -0.0088881699 0.0041400211    48.220405    48.218706    48.220085    112117.75 
   41000            0   -2736.9985 -0.0074286174 -0.065503274 -0.021539502  0.064756924 -0.010760701  0.036857395 0.0065206725    48.220574    48.218805    48.220183     112118.6 
   41500            0   -2736.9985 0.0072733758 4.6115263e-06  0.015035699 0.0067798171 -0.043521937 0.0099243781 -0.0053780093     48.22038    48.218616    48.220023    112117.34 
   42000            0   -2736.9985 -0.0090281439 -0.012480786 -0.011365664 -0.0032379811 0.0069457261 0.0094792914 0.0043888919    48.220484    48.218669    48.220081    112117.84 
   42500            0   -2736.9985 -0.00024685846 -0.00025180313 0.0009388338 -0.0014276061 0.0049094797 0.0079040808  0.000641166    48.220474    48.218694    48.220104    112117.93 
   43000            0   -2736.9985 -0.00010997953 -0.0031173346 -0.0010986923 0.0038860883 0.0028430483 0.0021864434 -0.0016352228    48.220458    48.218675    48.220082    112117.79 
   43500            0   -2736.9985 0.0039073885 -0.0037291541   0.01172664 0.0037246798 0.0092559636 -0.0016146331 -0.0063408848    48.220489    48.218625    48.220064    112117.71 
   44000            0   -2736.9985 -0.0040225806 -0.010458908 -0.0013535685 -0.00025526494 0.0025216543 -0.0020515891 -0.0044283135     48.22052    48.218686    48.220103    112118.01 
   44500            0   -2736.9985 -0.0010517547 -3.5266247e-05 -0.0020270895 -0.0010929084  0.011792338  0.011164377 -0.0055965314    48.220519    48.218735    48.220147    112118.23 
   45000            0   -2736.9985 -0.014219383  -0.01681255 -0.014077207 -0.011768391 0.0031672926  0.010113248 0.00013245252      48.2205    48.218675    48.220093    112117.92 
   45500            0   -2736.9985 0.0025839919  0.011513447 0.0042678915 -0.0080293631 0.00076649298 0.0034370237 0.0035213889    48.220458    48.218688    48.220099    112117.86 
   46000            0   -2736.9985 0.0024426736 0.0058410379 -0.007148475 0.0086354577 0.0043953684 0.0043157522 0.0023143936    48.220441    48.218684    48.220078    112117.77 
   46500            0   -2736.9985  0.016226297  0.016302672  0.014817259   0.01755896  0.001174081 0.0015354399 0.0012522532    48.220477    48.218704    48.220108    112117.96 
   47000            0   -2736.9985 0.00061239212 -7.228749e-05 0.00096584924 0.00094361462 -0.0040567329 -0.0037397552 0.00013752146    48.220439    48.218664    48.220065    112117.68 
   47500            0   -2736.9985 0.00053936037 -0.0013033159 0.00097384955 0.0019475475 -0.0037883424 -0.0020355066 -0.0064792683    48.220525     48.21875    48.220152    112118.29 
   48000            0   -2736.9985 -0.0001020185 -0.0088356164 0.0019819114 0.0065476495 0.0059158544 0.0029604093 0.00059462907    48.220497     48.21872    48.220121    112118.08 
   48500            0   -2736.9985 0.0059977886 0.0053086831 0.0065479011 0.0061367815 0.0026032621 0.0045459157 -0.003896131    48.220456    48.218678    48.220084     112117.8 
   49000            0   -2736.9985 0.00016520359 0.00013074533 0.00020521783 0.00015964761 0.0013648209 0.00044366907 -0.00095877359    48.220473    48.218697    48.220102    112117.93 
   49500            0   -2736.9985 0.0017964773 0.0017368296 0.0027081149 0.00094448748 0.0019861751 0.0074850513 0.00064708067    48.220451    48.218678    48.220084    112117.79 
   50000            0   -2736.9985 -3.2519652e-05 0.00048775877 7.7188516e-05 -0.00066250624 0.00063831968 0.0014038125 0.00094947692    48.220472    48.218699    48.220104    112117.93 
   50500            0   -2736.9985 6.654079e-05 -1.6182114e-05 0.00016712746 4.8677026e-05 0.0014294639 -0.00012856797 0.0010267943    48.220466    48.218693    48.220096    112117.89 
   51000            0   -2736.9985 -0.0023525842 -0.016031858 -0.0030726711  0.012046777  0.003008354 0.0015577231 0.0013376958    48.220499     48.21872    48.220115    112118.07 
   51500            0   -2736.9985 -0.0011983143 -0.0022931424 -0.0013991981 9.7397643e-05 0.0007064094 0.00015819897 0.00018773042     48.22047    48.218695    48.220099    112117.91 
   52000            0   -2736.9985 6.2445336e-06 2.8099998e-05 0.00014330139 -0.00015266779   0.00152593 0.00092360546   0.00209268    48.220479    48.218705    48.220109    112117.98 
   52500            0   -2736.9985 -2.6699895e-05 -0.00022612934 -0.0009263492 0.0010723789 -0.00078465701 -9.77078e-05 0.00011985709    48.220464    48.218691    48.220094    112117.87 
   53000            0   -2736.9985   0.00039495 0.00040666161 0.00035448385 0.00042370454 -0.00076152369 -0.00087936385 -0.00055570014    48.220465    48.218691    48.220094    112117.87 
   53500            0   -2736.9985 7.081938e-05 0.00035510213 -6.5745154e-05 -7.6898838e-05 0.0025489749 0.0014075808 9.8072188e-05    48.220473      48.2187    48.220103    112117.94 
   54000            0   -2736.9985 -2.4409416e-05 -0.00016564636 0.00015566311 -6.3244999e-05 0.00028799589 0.00037068535 0.0010224714    48.220472    48.218698    48.220102    112117.93 
   54500            0   -2736.9985 0.00016288163 8.0785407e-05  0.002528212 -0.0021203525 -0.0007792984 -0.00072578869 -0.00058950934    48.220468    48.218694      48.2201     112117.9 
   55000            0   -2736.9985 -0.0037456854 -0.0039776708 -0.0042077149 -0.0030516707 0.0013134224 0.00079224625 0.00017213536    48.220476    48.218703    48.220106    112117.96 
   55500            0   -2736.9985 -0.00037937694 0.00079506427 -0.00041587968 -0.0015173154 -0.00035544964 -0.00023096662 -9.8595353e-05    48.220462     48.21869    48.220094    112117.87 
   56000            0   -2736.9985 -0.00078650388 -0.00033240638 -0.0016983174 -0.00032878789 -0.00077171259 0.00031435106 -0.00050775859    48.220503    48.218733    48.220135    112118.16 
   56500            0   -2736.9985  0.000400688 -0.0012289097 0.00084048782 0.0015904859 -0.0018877523 -0.0025608203 -0.0019251616    48.220503     48.21873    48.220131    112118.14 
   57000            0   -2736.9985 2.3615151e-06 -1.5319606e-05 1.6751854e-05 5.6522967e-06 6.9414606e-05 3.6318934e-05 8.3816466e-07    48.220472      48.2187    48.220102    112117.93 
   57500            0   -2736.9985 2.0581072e-05 2.0006698e-05 2.3462908e-05 1.827361e-05 1.0787528e-05 3.7548974e-06 8.6293595e-06    48.220471      48.2187    48.220102    112117.93 
   58000            0   -2736.9985 -1.1910887e-06 -1.2690982e-05 6.9299505e-06 2.1877656e-06 -3.2170444e-06 1.4720201e-05 2.7609578e-05    48.220471      48.2187    48.220102    112117.93 
   58500            0   -2736.9985 5.0728513e-05 5.540727e-05 4.0290278e-05 5.648799e-05 1.6741745e-06 3.2619216e-06 -1.2807757e-05    48.220471      48.2187    48.220102    112117.93 
   59000            0   -2736.9985 -8.2847082e-06 -2.231706e-05 -7.3065812e-06 4.7695172e-06 -4.9342966e-06 1.312922e-05 -2.2080495e-06    48.220471    48.218701    48.220102    112117.93 
   59500            0   -2736.9985 -6.6021023e-05 0.00020401694 7.7093793e-05 -0.0004791738 -6.5854302e-05 -7.9920475e-05  -0.00011181     48.22047      48.2187    48.220102    112117.93 
   60000            0   -2736.9985 -3.0773344e-06 -2.3930227e-06 -3.4250399e-06 -3.4139405e-06 8.2508054e-06 2.7332667e-06 1.2507747e-06    48.220471    48.218701    48.220102    112117.93 
   60500            0   -2736.9985 5.2257755e-05 5.146383e-05 5.0886005e-05 5.4423432e-05 2.8216021e-05 -5.0086751e-06 3.4927727e-06     48.22047    48.218701    48.220101    112117.93 
   61000            0   -2736.9985 3.2981974e-06 4.9166809e-05 -2.2730457e-05 -1.654176e-05 2.410072e-05 1.0991499e-05 -1.7424048e-05     48.22047    48.218703    48.220101    112117.93 
   61500            0   -2736.9985 -4.6707447e-05 -4.7687423e-05 -3.7593687e-05 -5.4841232e-05 2.4160808e-05 2.9953967e-05 7.6508282e-06     48.22047    48.218703    48.220101    112117.93 
   62000            0   -2736.9985 -0.00019604179 -0.00021016561  -0.00017779 -0.00020016974 -6.6371628e-05 -5.1630919e-05 -3.300744e-05    48.220469    48.218703    48.220101    112117.93 
   62500            0   -2736.9985 3.0725945e-07 -7.9018499e-06 2.2342596e-06 6.5893687e-06 2.3331575e-05 3.9868357e-05 3.7206467e-05     48.22047    48.218703    48.220101    112117.93 
   63000            0   -2736.9985 -3.0117887e-05 9.0871124e-06 -0.00013644607 3.7005298e-05 -3.8390727e-05 -2.95091e-05 -2.3800121e-05    48.220469    48.218703    48.220101    112117.93 
   63500            0   -2736.9985 -7.1807924e-06 -2.9723756e-05 2.6382314e-05 -1.8200936e-05 4.3816163e-05 3.3222458e-05 1.1532613e-05    48.220469    48.218704      48.2201    112117.93 
   64000            0   -2736.9985 -1.9705628e-06 3.6611393e-06 -1.6188069e-05 6.6152415e-06 5.0411403e-06 1.630467e-05 -7.9414676e-06    48.220469    48.218704      48.2201    112117.93 
   64500            0   -2736.9985 0.00010484635 0.00021702842 7.7297248e-05 2.0213366e-05 -0.00018414009 -9.6423533e-05 -7.2070679e-05    48.220469    48.218705      48.2201    112117.93 
   65000            0   -2736.9985 -3.330664e-05 -6.4538445e-05 -8.1940372e-06 -2.7187437e-05 -2.3293896e-05 -1.2079908e-05 -3.8601186e-06    48.220468    48.218705      48.2201    112117.93 
   65500            0   -2736.9985 0.00018867234 0.00018339822 0.00019046466 0.00019215413 3.026104e-05 -8.0452756e-06 1.3843269e-05    48.220468    48.218705      48.2201    112117.93 
   66000            0   -2736.9985 1.1259314e-05 9.5104403e-06 2.2807989e-05 1.4595117e-06 1.3956481e-05 8.7085838e-06 -4.4992006e-06    48.220468    48.218706      48.2201    112117.93 
   66500            0   -2736.9985 -1.109573e-05 8.6720647e-06 -7.5722158e-05 3.3762905e-05 -1.5727523e-05 -2.6043742e-06 -7.5780753e-06    48.220468    48.218706      48.2201    112117.93 
   67000            0   -2736.9985 0.00016338129 8.9402207e-05 0.00031132824 8.941341e-05 -7.0818043e-06 -1.8749066e-05 -3.445311e-05    48.220468    48.218706    48.220099    112117.93 
   67500            0   -2736.9985 1.0326783e-06 -0.00012319284 9.0534818e-05 3.5756055e-05 8.7704148e-06 1.410194e-05 8.514467e-06    48.220468    48.218706      48.2201    112117.93 
   68000            0   -2736.9985 1.9552869e-05 8.100983e-05 -1.9893485e-05 -2.457737e-06 2.5511492e-05 3.6154133e-05 -4.387856e-05    48.220467    48.218706    48.220099    112117.93 
   68500            0   -2736.9985 9.6452216e-06 1.017973e-05 1.1370169e-05 7.385766e-06 9.7871856e-06 -7.4587583e-06 -7.119381e-06    48.220467    48.218707    48.220099    112117.93 
   69000            0   -2736.9985 6.7683946e-06 7.6288108e-06 5.8641607e-06 6.8122123e-06 -3.0030205e-06 8.5122502e-06 -3.3466695e-06    48.220467    48.218707    48.220099    112117.93 
   69500            0   -2736.9985 -4.2430509e-07 5.1305793e-06 -3.1382859e-05 2.4979364e-05 3.5827321e-05 8.0180421e-05 7.7685643e-06    48.220467    48.218708    48.220099    112117.93 
   70000            0   -2736.9985 7.6685691e-06 5.2954388e-06 9.1345971e-06 8.5756713e-06 2.438262e-05 -1.8944018e-07 9.0687339e-06    48.220467    48.218708    48.220099    112117.93 
   70500            0   -2736.9985 3.6816569e-06 -4.0123755e-05 0.00011781235 -6.664362e-05 -5.0698991e-05 -5.0925211e-05 -2.2674538e-05    48.220467    48.218708    48.220099    112117.93 
   71000            0   -2736.9985 1.5328007e-06 -4.8016959e-05 5.7485464e-05 -4.8701026e-06 -9.034126e-06 7.9436472e-06 1.5776455e-05    48.220467    48.218708    48.220099    112117.93 
   71500            0   -2736.9985 -4.0175124e-07 -3.4570644e-06 -3.7845804e-07 2.6302687e-06 -2.264898e-05 -3.4721965e-05 1.5130071e-06    48.220467    48.218708    48.220099    112117.93 
   72000            0   -2736.9985 0.0002079143 0.00074862741 -0.00033739337 0.00021250886 -0.0001402189 -0.00029513421 4.7497976e-05    48.220465     48.21871    48.220098    112117.93 
   72500            0   -2736.9985 -3.9061047e-07 -1.4493547e-06 -3.7266363e-06 4.0041595e-06 -1.1539236e-05 2.8696117e-06 2.983124e-06    48.220466     48.21871    48.220098    112117.93 
   73000            0   -2736.9985 -0.00021419427 -0.00021847114 -0.00019192841 -0.00023218325 -4.0390869e-08 6.2561396e-05 -2.4545416e-05    48.220466     48.21871    48.220098    112117.93 
   73500            0   -2736.9985 0.0002004199 0.00021878056 0.00013063955 0.00025183958 1.2433056e-05 6.2902715e-05 1.6561484e-05    48.220465     48.21871    48.220098    112117.93 
   74000            0   -2736.9985 -5.7958937e-08 -1.3843161e-05 2.1826597e-05 -8.1573126e-06 -1.250229e-05 -3.5222731e-06 -1.0437166e-05    48.220465     48.21871    48.220098    112117.93 
   74500            0   -2736.9985 -1.2392481e-06 -5.5576008e-06 1.2698555e-05 -1.0858699e-05 -4.1586782e-06 8.1209876e-06 1.0401083e-06    48.220465    48.218711    48.220098    112117.93 
   75000            0   -2736.9985 7.5334954e-06 6.6426339e-06 7.8945404e-06 8.0633118e-06 -5.1296172e-06 1.8067396e-05 -6.5492752e-06    48.220465    48.218711    48.220098    112117.93 
   75500            0   -2736.9985 -0.00017372196 -0.00037365138 -0.00020865025 6.1135756e-05  0.000266268 -1.7402585e-05 3.086591e-05    48.220465    48.218711    48.220097    112117.93 
   76000            0   -2736.9985 -2.8542735e-07 -9.6616969e-06 3.8573837e-06 4.9480312e-06 -3.9857556e-05 2.6147624e-05 -9.3927901e-06    48.220465    48.218711    48.220098    112117.93 
   76500            0   -2736.9985 -0.0001154662 -0.00011952674 -0.00011486704 -0.0001120048 -3.3608153e-05 2.5351789e-05 -2.6461697e-06    48.220465    48.218711    48.220097    112117.93 
   77000            0   -2736.9985 2.5328954e-06 -1.0640954e-05 1.7565204e-05 6.7443613e-07 -2.6583463e-05 6.6889369e-07 -1.1260967e-05    48.220465    48.218712    48.220097    112117.93 
   77500            0   -2736.9985 -2.3903305e-05 -1.8375522e-05 -3.4495406e-05 -1.8838988e-05 -3.5556001e-05 1.6318039e-05 -4.7384566e-06    48.220465    48.218712    48.220097    112117.93 
   78000            0   -2736.9985 0.00014383087 0.00015094986 0.00013682071 0.00014372204 -2.5584347e-05 3.2842304e-05 -2.079704e-06    48.220464    48.218712    48.220097    112117.93 
   78500            0   -2736.9985 -5.622644e-06 -2.3026643e-06 -9.2944367e-06 -5.270831e-06 5.0861556e-05 -6.5963215e-06 8.6839348e-05    48.220464    48.218713    48.220098    112117.93 
   79000            0   -2736.9985 -2.8563379e-06 6.5096382e-06 -5.0440596e-05 3.5361944e-05 1.9653942e-05 3.8225282e-05 2.152595e-05    48.220464    48.218712    48.220097    112117.93 
   79500            0   -2736.9985 4.305982e-06 6.771838e-05 3.8027424e-05 -9.2827858e-05 -2.5547158e-09 1.9934206e-05 7.4066503e-06    48.220464    48.218713    48.220097    112117.93 
   80000            0   -2736.9985 -8.4548746e-06 -8.6040795e-06 -8.5081089e-06 -8.2524353e-06 1.0181691e-05 2.7900473e-06 2.6759623e-06    48.220464    48.218713    48.220097    112117.93 
   80500            0   -2736.9985  -9.2119e-06 1.6765158e-05 -1.0427152e-05 -3.3973707e-05 -0.00010413015 -3.7551961e-05 -8.1478559e-05    48.220463    48.218713    48.220096    112117.93 
   81000            0   -2736.9985 -1.8109218e-07 -1.7751117e-07 -4.0889269e-07 4.3127334e-08 -2.3527744e-06 -1.4459661e-06 -2.3834872e-06    48.220463    48.218714    48.220096    112117.93 
   81500            0   -2736.9985 1.7548498e-06 -3.2567741e-06 3.1204495e-06 5.4008741e-06 4.4833769e-05 4.7580559e-05 1.0367652e-05    48.220463    48.218714    48.220096    112117.93 
   82000            0   -2736.9985 6.7056376e-06 3.182068e-05 -1.503277e-05 3.3290027e-06 6.787815e-06 7.5948901e-06 5.1133324e-06    48.220463    48.218715    48.220096    112117.93 
   82500            0   -2736.9985 2.3790571e-05 3.3866752e-05 2.7218519e-05 1.0286443e-05 7.8925869e-07 -3.903072e-06 -4.3507631e-06    48.220463    48.218715    48.220096    112117.93 
   83000            0   -2736.9985 -4.3354141e-05 -5.8829765e-06 -8.3357178e-05 -4.0822268e-05 9.0884012e-05 0.00013420146 6.5291015e-05    48.220462    48.218716    48.220096    112117.93 
   83500            0   -2736.9985 1.6602831e-07 -8.7913986e-06 4.587591e-06 4.7018925e-06 3.3903592e-05 -2.2093302e-05 1.1263066e-05    48.220462    48.218717    48.220095    112117.93 
   84000            0   -2736.9985 -2.0801631e-05 2.1810439e-05 -1.8466837e-05 -6.5748497e-05 1.4648721e-05 3.1381205e-07 -7.2534412e-06    48.220461    48.218717    48.220095    112117.93 
   84500            0   -2736.9985 -3.4610901e-05 -3.1537522e-05 -3.8117097e-05 -3.4178084e-05 5.2917054e-05 -2.0550123e-05 -7.4141477e-06    48.220461    48.218718    48.220094    112117.93 
   85000            0   -2736.9985 -4.8277869e-06 2.213633e-06 -1.0069506e-05 -6.627488e-06 -2.188988e-05 -3.8977419e-06 2.6381874e-06    48.220461    48.218718    48.220095    112117.93 
   85500            0   -2736.9985 2.449165e-05 2.5078618e-05 2.5443814e-05 2.2952519e-05 -2.6951809e-05 2.752382e-05 -3.2647752e-06    48.220461    48.218719    48.220094    112117.93 
   86000            0   -2736.9985 3.2896797e-08 -3.3547763e-07 4.9056333e-07 -5.6395311e-08 -2.9364216e-05 -1.9143109e-05 -1.8920321e-05     48.22046    48.218719    48.220094    112117.93 
   86500            0   -2736.9985 3.4351046e-05 3.4483595e-05 2.5176795e-05 4.3392749e-05 3.7707343e-05 -9.9373657e-05 -3.446578e-05    48.220461    48.218719    48.220095    112117.93 
   87000            0   -2736.9985 3.499282e-05 2.9954979e-05 5.8584588e-05 1.6438894e-05 3.0666267e-05 -2.8071969e-05 3.3043603e-06     48.22046    48.218719    48.220094    112117.93 
   87500            0   -2736.9985 5.3433124e-05 5.8333098e-05 5.0065009e-05 5.1901266e-05 1.1134128e-05 4.3523217e-05 2.8908358e-05     48.22046    48.218719    48.220094    112117.93 
   88000            0   -2736.9985 0.00011603098 0.0002301959 9.6354556e-05 2.1542494e-05 -3.0552055e-05 4.449964e-05 1.9851617e-05     48.22046     48.21872    48.220094    112117.93 
   88500            0   -2736.9985 5.0640922e-06 4.6318157e-06 5.3844542e-06 5.1760067e-06 1.978416e-05 5.8992703e-06 -6.5309694e-07     48.22046     48.21872    48.220094    112117.93 
   89000            0   -2736.9985 -4.1920165e-05 2.2891991e-05 -9.736234e-05 -5.1290147e-05 5.3946476e-06 2.381714e-05 -5.3779318e-06     48.22046    48.218721    48.220094    112117.93 
   89500            0   -2736.9985 6.5922084e-05 5.9183669e-05 7.1681834e-05 6.6900748e-05 -7.1249327e-06 3.9721385e-05 1.4696939e-06    48.220459     48.21872    48.220093    112117.93 
   90000            0   -2736.9985 -4.4420293e-06 2.1469312e-05 1.4748306e-05 -4.9543706e-05 4.8480066e-05 -6.9750667e-05 -2.7918477e-05     48.22046    48.218721    48.220094    112117.93 
   90500            0   -2736.9985 2.3868247e-06 3.0934408e-06 3.5838384e-06 4.8319484e-07 9.6149179e-06 4.8815577e-06 8.9323918e-06    48.220459    48.218721    48.220093    112117.93 
   91000            0   -2736.9985 -3.6942266e-07 2.5205604e-06 4.0399971e-05 -4.4028799e-05 -2.5839267e-06 2.6024672e-06 5.3156055e-06    48.220459    48.218721    48.220093    112117.93 
   91500            0   -2736.9985 -4.8745896e-05 -8.9010714e-05 -0.00014952785 9.2300875e-05 4.7001323e-05 -8.3017213e-06 2.0555909e-05     48.22046    48.218722    48.220094    112117.93 
   92000            0   -2736.9985 1.2445436e-05 1.2139828e-05 1.3347074e-05 1.1849406e-05 2.7937426e-05 -3.3077877e-05 1.5490682e-05    48.220459    48.218721    48.220093    112117.93 
   92500            0   -2736.9985 2.9235854e-05 3.1116055e-05 2.8869557e-05 2.7721951e-05 1.4774816e-06 5.3534329e-06 -7.6094247e-06    48.220459    48.218722    48.220093    112117.93 
   93000            0   -2736.9985 -7.5453486e-06 -6.5917966e-06 -8.0873212e-06 -7.9569281e-06 1.8243321e-05 3.8347686e-06 7.5571015e-06    48.220458    48.218722    48.220093    112117.93 
   93500            0   -2736.9985 -2.8682862e-08 3.3054298e-07 3.5471637e-06 -3.9637552e-06 1.3150269e-05 -2.5685581e-05 1.9981873e-06    48.220458    48.218722    48.220093    112117.93 
   94000            0   -2736.9985 1.2878158e-05 1.1757913e-05  2.55075e-06 2.432581e-05 0.00013456058 -1.7523592e-05 -2.4838089e-05    48.220459    48.218723    48.220093    112117.94 
   94500            0   -2736.9985 1.2065658e-05 1.1849998e-05 1.0906588e-05 1.3440388e-05 -2.637993e-06 -1.2763095e-06 -5.4075018e-07    48.220458    48.218723    48.220093    112117.93 
   95000            0   -2736.9985 -6.298154e-05 -6.0408522e-05 -0.0001001536 -2.8382495e-05 0.00011247781 -0.00018097164 -2.8855657e-05    48.220459    48.218723    48.220093    112117.93 
   95500            0   -2736.9985 -5.8388481e-06 -5.0881918e-06 -2.8447763e-06 -9.5835761e-06 1.1358863e-05 -1.1960856e-05 -6.6232196e-06    48.220458    48.218723    48.220092    112117.93 
   96000            0   -2736.9985 -5.5526365e-07 -8.6209731e-06 -3.2942908e-05 3.989809e-05 1.3302874e-05 -2.0845752e-06 -6.6030228e-06    48.220458    48.218723    48.220092    112117.93 
   96500            0   -2736.9985 -1.6151538e-05 -1.4598595e-05 -2.2732557e-05 -1.1123461e-05 -2.107378e-05 8.6630866e-06 2.2000135e-05    48.220457    48.218724    48.220092    112117.93 
   97000            0   -2736.9985 -2.1888328e-06 -8.0968255e-06 -1.0112913e-06 2.5416184e-06 -9.8162548e-06 2.7913459e-07 -2.3414318e-06    48.220458    48.218724    48.220092    112117.93 
   97500            0   -2736.9985 -2.2649632e-07 -1.8600906e-06 1.3855388e-05 -1.2674787e-05 3.1169702e-05 -3.4653529e-06 -3.6560766e-05    48.220458    48.218724    48.220092    112117.93 
   98000            0   -2736.9985 2.4709308e-06 -3.8903622e-06 4.8700526e-07 1.0816149e-05 2.3529056e-06 -1.1804208e-05 -1.7896626e-05    48.220457    48.218724    48.220092    112117.93 
   98500            0   -2736.9985 -1.3508721e-06 -1.3734576e-07 -2.157849e-06 -1.7574216e-06 -2.1969935e-05 -1.262651e-05 2.2734571e-06    48.220457    48.218724    48.220092    112117.93 
   99000            0   -2736.9985 -1.5052336e-05 -6.8598963e-06 -1.2037805e-05 -2.6259306e-05 -1.1331741e-05 1.5856649e-05 -3.5862713e-06    48.220456    48.218725    48.220091    112117.93 
   99500            0   -2736.9985 7.7769204e-07 4.987953e-07 3.8725246e-07 1.4470284e-06 -1.6215653e-05 2.156589e-06 1.2186879e-05    48.220457    48.218725    48.220092    112117.93 
  100000            0   -2736.9985 5.287335e-07 -6.8941283e-05 -1.8173048e-05 8.8700532e-05 -0.0001865866 1.5098952e-05 -0.00022051401    48.220457    48.218726    48.220091    112117.93 
  100500            0   -2736.9985 -2.3958952e-05 -2.4418076e-05 -1.5534647e-05 -3.1924134e-05 -2.0865964e-06 -2.0097207e-05 9.5434071e-07    48.220456    48.218726    48.220091    112117.93 
  101000            0   -2736.9985 -7.706742e-05 -7.1027195e-05 -8.343145e-05 -7.6743615e-05 5.3888986e-06 6.3098375e-07 -1.9627764e-05    48.220456    48.218726    48.220091    112117.93 
  101500            0   -2736.9985 5.4696546e-06 1.4819129e-05 6.1558738e-07 9.7424781e-07 -1.377164e-05 -9.1334305e-06 -8.2829709e-06    48.220456    48.218726    48.220091    112117.93 
  102000            0   -2736.9985 1.2200693e-05 2.7122343e-05 -1.3230724e-05 2.271046e-05 -1.0384729e-06 -1.6868472e-05 9.292672e-06    48.220456    48.218727    48.220091    112117.93 
  102500            0   -2736.9985 7.5697883e-06 -1.3387653e-05 2.9170031e-05 6.9269873e-06 9.9863958e-05 -3.2843461e-05 -0.00011608771    48.220455    48.218727    48.220091    112117.93 
  103000            0   -2736.9985 -3.5654739e-05 -1.3327619e-05 2.4141818e-05 -0.00011777842 0.00044298048 9.2847495e-05 -6.9279565e-05    48.220455     48.21873    48.220091    112117.94 
  103500            0   -2736.9985 2.6895979e-06 2.4403779e-06 3.0629417e-06 2.565474e-06 3.9814292e-06 -2.8325521e-07 4.2465146e-06    48.220455    48.218729     48.22009    112117.93 
  104000            0   -2736.9985 -8.1111167e-05 -6.3408818e-05 -1.4334064e-05 -0.00016559062 -2.2450147e-05 -2.1986917e-05 -8.7217262e-05    48.220454    48.218729     48.22009    112117.93 
  104500            0   -2736.9985 -7.9557403e-06 2.511326e-05 -1.7584731e-05 -3.1395751e-05 1.7206347e-06 1.1569813e-05 -1.3903135e-05    48.220454     48.21873     48.22009    112117.93 
  105000            0   -2736.9985 8.6795077e-07 4.333373e-06 -8.3455302e-06 6.6160095e-06 4.1267617e-05 -4.7327021e-05 0.00014095741    48.220454     48.21873     48.22009    112117.93 
  105500            0   -2736.9985 -7.8742545e-06 -1.0391987e-05 -8.6804377e-06 -4.5503387e-06 2.1179153e-06 3.3790446e-05 2.2972884e-05    48.220454     48.21873     48.22009    112117.93 
  106000            0   -2736.9985 2.5585693e-06 2.4358833e-06 -1.4771678e-05 2.0011503e-05 0.0001037387 1.1689866e-05 3.4393175e-05    48.220454     48.21873    48.220089    112117.93 
  106500            0   -2736.9985 -2.1276019e-05 -3.533211e-05 1.5068559e-05 -4.3564506e-05 1.0481244e-06 1.8644417e-05 1.8284117e-05    48.220453    48.218731    48.220089    112117.93 
  107000            0   -2736.9985 1.8341129e-06 -2.9526013e-05 1.5463056e-05 1.9565295e-05 -1.4026674e-05 9.1767963e-06 -1.6547705e-05    48.220453    48.218731    48.220089    112117.93 
  107500            0   -2736.9985 4.3321393e-05 4.2166108e-05 3.9366351e-05 4.843172e-05 5.7628953e-05 1.7164189e-05 4.4423769e-05    48.220453    48.218731    48.220089    112117.93 
  108000            0   -2736.9985 1.3826645e-08 -1.4473727e-07 2.2398563e-08 1.6381865e-07 -2.1713703e-06 1.8211719e-05 -1.0950039e-06    48.220453    48.218732    48.220089    112117.93 
  108500            0   -2736.9985 -0.00035876457 -0.00033140667 -0.00039322542 -0.00035166161 7.3274231e-05 4.8737665e-05 -1.5021026e-05    48.220453    48.218732    48.220089    112117.93 
  109000            0   -2736.9985 -1.7051749e-05 -4.7002654e-05 2.9694766e-05 -3.384736e-05 -1.1307984e-05 -3.2102546e-05 -2.2335002e-06    48.220453    48.218732    48.220089    112117.93 
  109500            0   -2736.9985 8.1451282e-08 4.2198991e-07 -3.3478243e-07 1.5714637e-07 -1.5499182e-06 4.7871589e-06 -9.5154729e-06    48.220453    48.218732    48.220089    112117.93 
  110000            0   -2736.9985 -2.4836868e-06 -9.8194006e-06 -2.5345754e-06 4.9029157e-06 5.381127e-06 -7.3001329e-05 -2.5800402e-05    48.220453    48.218732    48.220088    112117.93 
  110500            0   -2736.9985 3.3722644e-06 -2.3545433e-05 2.1406677e-05 1.225555e-05 -7.4253475e-06 -5.9342748e-06 -2.1236056e-05    48.220452    48.218733    48.220088    112117.93 
  111000            0   -2736.9985 7.2958385e-06 -4.695776e-06 2.4792992e-05 1.790299e-06 7.9629265e-06 2.9876135e-06 -8.265869e-06    48.220452    48.218733    48.220088    112117.93 
  111500            0   -2736.9985 -3.2807768e-08 -1.1085792e-07 -9.9264449e-07 1.0050791e-06 -1.0876025e-05 -1.3615383e-05 -7.8199988e-06    48.220452    48.218734    48.220088    112117.93 
  112000            0   -2736.9985 -3.3470992e-05 -6.0674878e-05 -4.8734269e-05 8.9961722e-06 -2.4842285e-05 -6.7327265e-05 -4.1392409e-05    48.220451    48.218734    48.220088    112117.93 
  112500            0   -2736.9985 -1.1335617e-06 -1.8263701e-06 -1.2310709e-06 -3.4324389e-07 -4.7781795e-06 -3.0707506e-05 -3.3150953e-05    48.220451    48.218734    48.220088    112117.93 
  113000            0   -2736.9985 -6.7310387e-07 1.158034e-06 -1.3597849e-06 -1.8175606e-06 -7.7184868e-06 6.8802418e-06 -1.0735786e-05    48.220451    48.218734    48.220088    112117.93 
  113500            0   -2736.9985 1.1214055e-05 1.0878899e-05 1.3844185e-05 8.9190822e-06 -2.9048552e-05 4.8904205e-05 3.2791409e-05    48.220451    48.218734    48.220087    112117.93 
  114000            0   -2736.9985 -2.30795e-05 -3.8781126e-05 -2.0533315e-06 -2.8404042e-05 -8.0898776e-06 1.7040585e-05 1.328192e-05    48.220451    48.218735    48.220088    112117.93 
  114500            0   -2736.9985 6.5343705e-08 2.4450017e-07 -9.9579765e-07 9.4732859e-07 -5.3766243e-06 -5.6742616e-06 -2.7462791e-05    48.220451    48.218735    48.220088    112117.93 
  115000            0   -2736.9985 2.1196249e-05 3.2833372e-05 2.3218933e-05 7.5364424e-06 3.2355834e-06 8.2365334e-06 -2.1147394e-06     48.22045    48.218735    48.220087    112117.93 
  115500            0   -2736.9985 1.4880517e-05 1.8770453e-05 1.0705971e-05 1.5165127e-05 8.584726e-07 -6.9752156e-06 -5.0045603e-06    48.220451    48.218735    48.220087    112117.93 
  116000            0   -2736.9985 4.0028711e-05 5.6869337e-05 8.4594933e-05 -2.1378137e-05 7.5576016e-05 8.303413e-05 4.2372967e-05     48.22045    48.218736    48.220087    112117.93 
  116500            0   -2736.9985 1.8271019e-06 -1.1644538e-05 -2.7596748e-05 4.4722592e-05 -1.2804081e-05 3.0715664e-05 -1.2879126e-06     48.22045    48.218736    48.220087    112117.93 
  117000            0   -2736.9985 -8.2824267e-06 -9.934402e-06 -3.735373e-05 2.2440852e-05 -3.7944309e-05 -3.5695708e-05 -1.5059298e-05     48.22045    48.218736    48.220087    112117.93 
  117500            0   -2736.9985 -6.6584474e-07 1.2246192e-06 -1.7244891e-06 -1.4976643e-06 -6.4986255e-06 3.1472988e-06 -6.3132139e-06     48.22045    48.218737    48.220087    112117.93 
  118000            0   -2736.9985 -3.6621854e-06 -6.5892027e-06 -1.8937423e-06 -2.5036112e-06 5.3509223e-07 2.1811629e-05 3.5114577e-06     48.22045    48.218737    48.220087    112117.93 
  118500            0   -2736.9985 2.2302797e-05 -1.5557967e-05 5.8380057e-05 2.4086301e-05 1.1698397e-05 -0.00013571176 -2.3360706e-05     48.22045    48.218738    48.220087    112117.93 
  119000            0   -2736.9985 1.2435866e-06 -9.2444336e-07 1.7597903e-07 4.4792241e-06 -1.4553824e-05 -3.8874914e-05 -4.2890868e-06    48.220449    48.218738    48.220086    112117.93 
  119500            0   -2736.9985 0.00011536814 0.00012557291 0.00011629806 0.00010423346 -1.0602061e-06 1.5441907e-05 1.3295881e-05    48.220448    48.218738    48.220086    112117.93 
  120000            0   -2736.9985 2.1067993e-07 -3.5015413e-06 6.6663697e-06 -2.5327886e-06 -9.1003401e-06 1.1320187e-05 3.4834985e-06    48.220449    48.218739    48.220086    112117.93 
  120500            0   -2736.9985 -1.0065927e-07 -4.0145068e-06 1.4467652e-06 2.2657639e-06 7.3023851e-06 1.3162111e-05 1.0509833e-06    48.220449    48.218739    48.220086    112117.93 
  121000            0   -2736.9985 -0.00024762811 -0.0003837909 -0.00014000366 -0.00021908977 -2.6904297e-06 3.5236295e-05 -5.3198458e-05    48.220448    48.218739    48.220085    112117.93 
  121500            0   -2736.9985 -1.6242677e-05 -1.6264377e-05 -1.5846288e-05 -1.6617365e-05 -5.1313256e-06 3.0058329e-06 5.3194729e-06    48.220448     48.21874    48.220085    112117.93 
  122000            0   -2736.9985 8.9910713e-08 7.4181542e-06 -1.8226596e-06 -5.3257625e-06 -2.4054523e-05 0.00010051511 -8.6938355e-06    48.220448     48.21874    48.220086    112117.93 
  122500            0   -2736.9985 -1.150535e-05 -1.167653e-05 -1.1745062e-05 -1.1094459e-05 1.0845584e-06 5.410296e-07 1.0578607e-05    48.220448     48.21874    48.220085    112117.93 
  123000            0   -2736.9985 1.5462857e-07 9.7459641e-07 -4.2052712e-07 -9.0183589e-08 -3.3122081e-05 4.1392656e-06 2.4657467e-06    48.220448     48.21874    48.220085    112117.93 
  123500            0   -2736.9985 -8.8287128e-05 -8.8773152e-05 -7.8959608e-05 -9.7128622e-05 -3.9446793e-05 -7.2899186e-06 -3.3800091e-05    48.220448    48.218741    48.220085    112117.93 
  124000            0   -2736.9985 -5.75168e-06 5.3670948e-06 -1.0900116e-05 -1.1722019e-05 2.2930671e-05 -9.0374882e-06 1.9309481e-05    48.220447    48.218741    48.220085    112117.93 
  124500            0   -2736.9985 -3.4660615e-05 3.9790953e-05 -6.6101098e-05 -7.7671702e-05 -4.7888459e-05 5.5920045e-05 1.8246346e-05    48.220447    48.218741    48.220085    112117.93 
  125000            0   -2736.9985 -6.2987775e-06 -1.5465132e-05 4.3978452e-07 -3.8709847e-06 1.5555213e-05 -1.8189938e-05 9.8912808e-07    48.220447    48.218741    48.220085    112117.93 
  125500            0   -2736.9985 -4.8622361e-06 -3.138733e-05 -2.087847e-06 1.8888469e-05  -3.9913e-05 4.9008874e-05 3.2888814e-05    48.220447    48.218742    48.220085    112117.93 
  126000            0   -2736.9985 0.00015366594 0.00028139305 6.7331335e-05 0.00011227345 -1.2006299e-05 5.1547871e-06 -3.1679133e-05    48.220447    48.218742    48.220085    112117.93 
  126500            0   -2736.9985 -5.5591121e-08 9.5898104e-06 -1.2021934e-06 -8.5543904e-06 4.087905e-06 -3.9073961e-06 -2.8948748e-06    48.220447    48.218742    48.220085    112117.93 
  127000            0   -2736.9985 -3.6655407e-06 -2.2616731e-05 -4.2072271e-05 5.369238e-05 4.7502009e-05 -1.3146434e-06 1.9208863e-06    48.220446    48.218742    48.220084    112117.93 
  127500            0   -2736.9985 -5.0901656e-05 2.7924514e-05 -5.7837548e-05 -0.00012279193 -0.00012955273 1.4863917e-05 -9.4051028e-06    48.220447    48.218743    48.220085    112117.93 
  128000            0   -2736.9985 5.8084554e-06 -1.1474149e-05 2.0081129e-05 8.8183864e-06 1.5805111e-05 -1.8499555e-07 -7.576671e-07    48.220446    48.218743    48.220084    112117.93 
  128500            0   -2736.9985 -2.8690885e-06 -2.0137116e-05 3.1257948e-05 -1.9728098e-05 -3.0367996e-05 9.0568006e-05 -2.787713e-05    48.220446    48.218744    48.220084    112117.93 
  129000            0   -2736.9985 1.2865496e-07 1.663395e-07 1.1191515e-07 1.0771022e-07 -9.8964014e-06 4.2538677e-05 -1.8808526e-06    48.220446    48.218744    48.220084    112117.93 
  129500            0   -2736.9985 4.064338e-06 8.5380123e-06 5.0812149e-06 -1.4262132e-06 -4.1810927e-05 -2.2713695e-05 7.1184784e-07    48.220445    48.218745    48.220083    112117.93 
  130000            0   -2736.9985 9.1499038e-06 1.6733708e-05 1.3203577e-05 -2.4875743e-06 -3.2027305e-06 -4.7372995e-06 1.5485127e-05    48.220445    48.218745    48.220084    112117.93 
  130500            0   -2736.9985 1.2694527e-06 1.6470986e-06 2.0124523e-06 1.4880706e-07 -8.4479415e-06 -1.1569921e-05 3.1072839e-06    48.220445    48.218745    48.220083    112117.93 
  131000            0   -2736.9985 2.3970219e-07 -3.3620697e-06 8.1990241e-06 -4.1178479e-06 1.2862749e-05 2.5854083e-05 -6.7173047e-05    48.220445    48.218745    48.220083    112117.93 
  131500            0   -2736.9985 -2.6371788e-07 5.6860514e-07 1.308281e-07 -1.4905869e-06 -1.8540202e-05 -7.9575804e-06 -6.3593424e-06    48.220445    48.218746    48.220083    112117.93 
  132000            0   -2736.9985 -0.00025133569 -0.000167925 -0.00024610658 -0.00033997549 4.5348952e-06 2.8695343e-05 -2.1931977e-05    48.220445    48.218747    48.220083    112117.93 
  132500            0   -2736.9985 1.451212e-05 -0.00019419969 -6.60287e-05 0.00030376475 1.1749101e-05 3.5257327e-05 4.7647546e-05    48.220444    48.218747    48.220082    112117.93 
  133000            0   -2736.9985 8.6347436e-06 7.5437409e-06 9.5415953e-06 8.8188947e-06 7.3596425e-06 9.8776059e-06 2.0324947e-06    48.220444    48.218747    48.220082    112117.93 
  133500            0   -2736.9985 -1.5543256e-06 8.2634405e-05 -9.1577102e-05 4.2797205e-06 -5.6713044e-05 -1.6983863e-05 -1.1339509e-06    48.220444    48.218748    48.220082    112117.93 
  134000            0   -2736.9985 -1.1712319e-05 -1.0735408e-05 -9.7861156e-06 -1.4615433e-05 4.8764997e-05 2.3119829e-05 -7.5802009e-06    48.220443    48.218747    48.220082    112117.93 
  134500            0   -2736.9985 -0.00014114651 -0.00015404137 -0.00012493328 -0.00014446488 9.1378304e-05 1.762681e-05 -1.4035952e-05    48.220443    48.218749    48.220082    112117.93 
  135000            0   -2736.9985 7.5030548e-06 1.7208261e-05 6.4550997e-06 -1.1541964e-06 1.0560612e-05 -4.0991545e-06 6.0054207e-07    48.220443    48.218748    48.220082    112117.93 
  135500            0   -2736.9985 1.0535448e-07 0.00011944725 -3.173317e-05 -8.7398021e-05 -2.5369044e-06 1.1804972e-05 -1.2849175e-05    48.220443    48.218749    48.220082    112117.93 
  136000            0   -2736.9985 5.8266891e-06 2.8497541e-05 -1.9622956e-05 8.605482e-06 -2.2458487e-05 -9.0795854e-07 -2.0734919e-05    48.220442    48.218749    48.220081    112117.93 
  136500            0   -2736.9985 -2.8387453e-05 -4.0826919e-05 -2.9946394e-05 -1.4389045e-05 -4.0015151e-05 -2.9933683e-05 -8.3068347e-06    48.220442    48.218749    48.220081    112117.93 
  137000            0   -2736.9985 6.3761366e-09 1.0405259e-06 -6.1907496e-07 -4.023225e-07 -9.8230127e-06 2.1551555e-06 1.1652494e-05    48.220442     48.21875    48.220081    112117.93 
  137500            0   -2736.9985 -1.6871874e-07 5.0347292e-07 -4.8467419e-07 -5.2495495e-07 4.3311245e-05 8.8953217e-06 2.4229931e-06    48.220442     48.21875    48.220081    112117.93 
  138000            0   -2736.9985 -8.9884913e-07 4.9454057e-05 -4.3137662e-05 -9.0129423e-06 1.5131162e-05 4.1419947e-05 -8.4894475e-06    48.220442     48.21875    48.220081    112117.93 
  138500            0   -2736.9985 1.2531828e-06 1.2868744e-06 6.1690743e-06 -3.6964002e-06 9.2509655e-06 6.5301866e-06 -2.5636363e-06    48.220442     48.21875    48.220081    112117.93 
  139000            0   -2736.9985 -1.4446806e-05 -1.4418192e-05 -1.3143213e-05 -1.5779012e-05 6.5481658e-05 2.5846872e-05 1.9278532e-05    48.220442     48.21875    48.220081    112117.93 
  139500            0   -2736.9985 6.8878564e-05 7.0119395e-05 6.0383087e-05 7.6133208e-05 1.4969636e-06 7.4121535e-06 3.4677149e-06    48.220442    48.218751    48.220081    112117.93 
  140000            0   -2736.9985 -3.1785866e-06 -1.0974318e-05 2.1468653e-06 -7.0830722e-07 1.3482513e-05 1.3891674e-05 -1.3923605e-06    48.220442    48.218751    48.220081    112117.93 
  140500            0   -2736.9985 2.1476411e-05 -1.9648122e-05 0.00014209459 -5.8017232e-05 6.7728561e-05 -1.4890879e-05 -2.409118e-05    48.220442    48.218751    48.220081    112117.93 
  141000            0   -2736.9985 7.6197692e-08 -3.647133e-07 2.0053972e-06 -1.4120908e-06 -1.3483967e-05 9.4850865e-07 -1.0519493e-06    48.220441    48.218751    48.220081    112117.93 
  141500            0   -2736.9985 1.2747765e-05 1.249367e-05 1.2327992e-05 1.3421635e-05 9.6743398e-06 -8.8579893e-06 -1.9377824e-05    48.220442    48.218751    48.220081    112117.93 
  142000            0   -2736.9985 5.9811395e-05 0.00041867687 -0.00031182615 7.2583469e-05 3.4035955e-05 2.1859929e-05 6.7592733e-05     48.22044    48.218753     48.22008    112117.93 
  142500            0   -2736.9985 9.4939807e-07 -1.8602656e-07 1.8659346e-06 1.1682862e-06 1.0579459e-05 3.1622105e-06 3.156924e-06     48.22044    48.218753     48.22008    112117.93 
  143000            0   -2736.9985 1.8588116e-05 4.1466968e-05 -2.8194746e-05 4.2492125e-05 -0.00023522951 0.00026845548 -0.00015247214     48.22044    48.218754     48.22008    112117.93 
  143500            0   -2736.9985 2.9690696e-05 3.2247383e-05 3.230282e-05 2.4521886e-05 -4.2645694e-07 1.3425331e-05 4.1387988e-07    48.220439    48.218755    48.220079    112117.93 
  144000            0   -2736.9985 -6.0594592e-05 -6.2702704e-05 -5.8827257e-05 -6.0253814e-05 1.9274525e-05 4.3551288e-05 -8.6147533e-05    48.220439    48.218755    48.220079    112117.93 
  144500            0   -2736.9985 3.0210576e-05 2.685944e-05 3.3332203e-05 3.0440087e-05 6.8177195e-07 1.4275901e-05 3.8220687e-06    48.220439    48.218756    48.220079    112117.93 
  145000            0   -2736.9985 3.8889166e-08 -3.9279384e-06 4.1661601e-07 3.6279899e-06 -2.35473e-05 2.0856758e-05 7.6720565e-06    48.220439    48.218756    48.220079    112117.93 
  145500            0   -2736.9985 -3.3676867e-05 -2.7964848e-05 -5.6851304e-05 -1.621445e-05 8.6063423e-05 8.3566471e-05 5.0303991e-05    48.220439    48.218757    48.220079    112117.93 
  146000            0   -2736.9985 -9.4130214e-07 7.7253314e-07 -2.0469444e-06 -1.5494951e-06 -2.0283168e-05 4.0307306e-05 -8.7119407e-06    48.220438    48.218758    48.220078    112117.93 
  146500            0   -2736.9985 -0.00016000901 -0.00013986679 -0.00013101945 -0.00020914078 4.4720963e-05 1.3337744e-05 -2.0024456e-05    48.220437    48.218758    48.220078    112117.93 
  147000            0   -2736.9985 -5.8186916e-06 8.2542135e-06 1.2445239e-05 -3.8155527e-05 -1.9439994e-05 7.9294961e-06 -3.3035526e-07    48.220437    48.218758    48.220078    112117.93 
  147500            0   -2736.9985 -3.3039821e-06 -2.8904021e-06 -3.594175e-06 -3.4273692e-06 7.5505368e-06 -1.1339264e-05 9.7501603e-06    48.220437    48.218758    48.220078    112117.93 
  148000            0   -2736.9985 1.1651636e-05 1.9556615e-05 5.9646987e-06 9.4335941e-06 -5.08917e-05 2.6688832e-05 1.5890578e-05    48.220437    48.218759    48.220078    112117.93 
  148500            0   -2736.9985 4.7374836e-06 4.546436e-06 6.3033325e-06 3.3626824e-06 -1.5600051e-05 1.2778452e-05 -6.979816e-06    48.220437    48.218759    48.220078    112117.93 
  149000            0   -2736.9985 3.8011223e-06 5.3289389e-05 -1.856397e-05 -2.3322052e-05 -7.3666021e-05 0.00013931333 -1.2897574e-05    48.220437     48.21876    48.220078    112117.93 
  149500            0   -2736.9985 1.6386806e-05 2.147564e-05 1.8560791e-05 9.1239861e-06 7.6047085e-07 1.2459184e-05 3.4839005e-06    48.220437    48.218759    48.220077    112117.93 
  150000            0   -2736.9985 6.935144e-07 -8.48499e-06 -3.1843959e-05 4.2409492e-05 2.0643893e-06 -8.8323106e-06 4.9155553e-06    48.220437    48.218759    48.220077    112117.93 
  150500            0   -2736.9985 0.00024908635 0.00024490151 0.00026959224 0.00023276531 -5.6704342e-05 1.6557096e-05 3.5503107e-05    48.220436     48.21876    48.220077    112117.93 
  151000            0   -2736.9985 7.3433263e-08 4.7661147e-07 -2.7906708e-07 2.2755404e-08 7.4597716e-06 5.9587321e-06 4.7172444e-06    48.220436     48.21876    48.220077    112117.93 
  151500            0   -2736.9985 -2.6990473e-06  6.45778e-05 0.00014428528 -0.00021696022 1.1912185e-05 2.7925407e-05 2.4926431e-05    48.220436     48.21876    48.220077    112117.93 
  152000            0   -2736.9985 -4.1033432e-07 -5.5447109e-07 -7.9755697e-07 1.210251e-07 1.1550541e-05 -2.5156518e-05 -2.8746529e-05    48.220436    48.218761    48.220077    112117.93 
  152500            0   -2736.9985 -2.0188109e-05 -2.6557618e-05 -1.4901767e-05 -1.9104942e-05 -8.9156385e-06 5.0589265e-06 3.3328623e-07    48.220436    48.218761    48.220077    112117.93 
  153000            0   -2736.9985 5.1188318e-05 0.00011261414 -0.0001558872 0.00019683801 -6.2024218e-05 -3.6549616e-06 -1.8088043e-05    48.220435    48.218761    48.220077    112117.93 
  153500            0   -2736.9985 -1.068509e-06 7.3929386e-06 -3.4500968e-06 -7.1483688e-06 -1.3474262e-05 -3.4737635e-06 5.466621e-06    48.220435    48.218761    48.220077    112117.93 
  154000            0   -2736.9985 -0.00039035069 -0.00021850024 -0.00057396043 -0.00037859141 1.0033341e-05 -3.479534e-05 1.6274719e-05    48.220435    48.218762    48.220076    112117.93 
  154500            0   -2736.9985 9.8293614e-05 0.00014278166 6.3332418e-05 8.8766768e-05 0.0001575397 0.0003468359 0.00017465767    48.220434    48.218763    48.220076    112117.93 
  155000            0   -2736.9985 7.146463e-08 -1.4294524e-06 3.1243153e-06 -1.480469e-06 6.5850848e-06 -2.0537438e-05 -8.1428409e-07    48.220434    48.218764    48.220076    112117.93 
  155500            0   -2736.9985 2.0551734e-05 3.0707117e-05 2.0895273e-05 1.0052811e-05 0.0002764094 8.8584137e-05 5.3687239e-05    48.220434    48.218764    48.220075    112117.93 
  156000            0   -2736.9985 -4.869712e-06 1.8985787e-05 -1.7115974e-05 -1.6478949e-05 -1.2618625e-05 7.5824593e-06 3.7606433e-06    48.220434    48.218764    48.220075    112117.93 
  156500            0   -2736.9985 -6.8525054e-05 -7.4657896e-05 -7.7227865e-05 -5.3689401e-05 -6.8702194e-05 -5.1159263e-05 2.5904002e-05    48.220433    48.218765    48.220075    112117.93 
  157000            0   -2736.9985 -9.6431395e-08 8.1758938e-07 -2.0703282e-06 9.6344464e-07 1.0021714e-05 1.4201708e-05 1.3127458e-06    48.220433    48.218765    48.220075    112117.93 
  157500            0   -2736.9985 7.2115927e-07 -6.5932282e-07 1.876205e-06 9.465956e-07 1.5123459e-05 2.6166744e-06 -1.8773707e-06    48.220434    48.218765    48.220075    112117.93 
  158000            0   -2736.9985 -2.8737748e-06 -3.1550091e-05 -3.0804468e-05 5.3733235e-05 9.6273651e-06 -2.9192452e-07 1.0698365e-05    48.220433    48.218765    48.220075    112117.93 
  158500            0   -2736.9985 -3.3774436e-07 4.2611997e-06 1.4809478e-06 -6.7553806e-06 -8.37533e-07 1.2440989e-05 4.4641976e-06    48.220433    48.218765    48.220075    112117.93 
  159000            0   -2736.9985 0.00021899188 0.00023551895 0.0002205164 0.00020094028 8.1929528e-05 -9.593831e-05 -9.3154981e-05    48.220434    48.218767    48.220076    112117.94 
  159500            0   -2736.9985 8.7156185e-06 1.7251695e-05 8.0514479e-06 8.4371211e-07 2.2118353e-06 9.0876109e-06 1.1630268e-05    48.220432    48.218766    48.220074    112117.93 
  160000            0   -2736.9985 -4.3607646e-05 -6.8379109e-05 -7.4575153e-05 1.2131325e-05 1.1159162e-05 -3.4152199e-05 -3.9706138e-05    48.220433    48.218767    48.220075    112117.93 
  160500            0   -2736.9985 -9.9176994e-06 -1.0454772e-05 -1.26322e-05 -6.6661259e-06 9.7382409e-06 1.360855e-05 -4.2718076e-06    48.220432    48.218767    48.220074    112117.93 
  161000            0   -2736.9985 -9.8007614e-09 3.2199181e-07 -5.3625228e-08 -2.9776886e-07 -5.4324715e-06 -1.7701822e-06 -2.662662e-06    48.220432    48.218767    48.220074    112117.93 
  161500            0   -2736.9985 -7.0960037e-05 -4.2349978e-05 7.0698493e-05 -0.00024122863 1.7836224e-05 -1.9769513e-05 7.6999053e-06    48.220432    48.218767    48.220074    112117.93 
  162000            0   -2736.9985 7.321663e-08 -1.3842801e-06 -1.8335227e-06 3.4374526e-06 -1.2358466e-05 -8.9306481e-06 -1.1917628e-05    48.220432    48.218768    48.220074    112117.93 
  162500            0   -2736.9985 1.4889294e-05 2.6412729e-05 -2.1411367e-05 3.966652e-05 -3.3668332e-05 6.3404697e-06 -2.4880363e-05    48.220432    48.218767    48.220074    112117.93 
  163000            0   -2736.9985 9.4778077e-06 -3.8638264e-05 6.4066954e-05 3.0047336e-06 -2.9284425e-05 -3.4957071e-06 1.0069068e-05    48.220432    48.218768    48.220074    112117.93 
  163500            0   -2736.9985 6.3211027e-07 8.6264083e-06 -3.3673391e-07 -6.3933436e-06 4.1329298e-06 -1.282116e-05 -3.4065668e-06    48.220431    48.218768    48.220074    112117.93 
  164000            0   -2736.9985 -5.7142775e-05 -0.000137167 5.8939885e-05 -9.3201213e-05 -2.5651229e-05 -6.2434809e-05 4.9411017e-05    48.220431    48.218768    48.220073    112117.93 
  164500            0   -2736.9985 -1.1441978e-05 -1.1541605e-05 -1.1594152e-05 -1.1190178e-05 1.9753796e-06 9.4618856e-06 -5.811564e-06    48.220431    48.218768    48.220074    112117.93 
  165000            0   -2736.9985 -4.9958094e-05 -0.00020656434 1.2414743e-05 4.4275311e-05 5.3072938e-05 -8.6781566e-05 6.1221321e-05    48.220431    48.218769    48.220073    112117.93 
  165500            0   -2736.9985 3.9795079e-05 3.9047432e-05 3.9215088e-05 4.1122715e-05 1.4026413e-05 2.6873631e-05 -1.537683e-05    48.220431    48.218769    48.220073    112117.93 
  166000            0   -2736.9985 4.9273809e-08 -6.6188914e-08 -1.1575767e-07 3.2976802e-07 -2.2659684e-07 -5.0193911e-06 -7.3800668e-06    48.220431    48.218769    48.220073    112117.93 
  166500            0   -2736.9985 2.634591e-05 2.7285772e-05 2.848267e-05 2.3269289e-05 1.9477723e-05 -1.1780904e-05 -1.005866e-05    48.220431    48.218769    48.220073    112117.93 
  167000            0   -2736.9985 -4.8334266e-08 -7.6857809e-08 -8.3151676e-08 1.5006688e-08 7.2216503e-06 -5.654027e-06 2.5812826e-06    48.220431     48.21877    48.220073    112117.93 
  167500            0   -2736.9985 0.00015201655 0.00015464457 0.00012976099 0.0001716441 -0.00010653447 0.00010611438 3.3572474e-06     48.22043     48.21877    48.220073    112117.93 
  168000            0   -2736.9985 1.2524414e-06 9.427412e-07 4.2079768e-06 -1.3933937e-06 8.2456764e-06 -1.5198126e-06 2.9116966e-06     48.22043     48.21877    48.220073    112117.93 
  168500            0   -2736.9985 8.3503019e-06 -1.7089749e-05 4.139183e-05 7.4882517e-07 1.8144782e-05 -4.0442744e-05 2.1239543e-06     48.22043     48.21877    48.220073    112117.93 
  169000            0   -2736.9985 -8.8931411e-06 -0.00015179753 7.9421836e-05 4.5696275e-05 1.3926656e-05 1.160123e-05 1.3529891e-05     48.22043    48.218771    48.220072    112117.93 
  169500            0   -2736.9985 -3.5343728e-07 -4.8473869e-07 -2.3144701e-07 -3.4412615e-07 -1.0137503e-05 -9.9080503e-06 -9.7224323e-07     48.22043    48.218771    48.220073    112117.93 
  170000            0   -2736.9985 2.7745267e-06 -2.6407591e-06 4.637223e-06 6.3271161e-06 6.2504867e-06 -1.8200661e-05 -1.7269725e-05    48.220429    48.218771    48.220072    112117.93 
  170500            0   -2736.9985 1.7917594e-05 5.7092879e-05 -2.0207565e-05 1.6867467e-05 6.8286166e-06 -1.0624075e-05 -4.9285832e-06    48.220429    48.218772    48.220072    112117.93 
  171000            0   -2736.9985 -2.0176713e-06 -3.4587622e-08 -3.4962397e-06 -2.5221864e-06 3.1771277e-06 -6.1776305e-05 -2.0058877e-05    48.220429    48.218771    48.220072    112117.93 
  171500            0   -2736.9985 -8.5970643e-06 -1.1365875e-05 -4.7001498e-06 -9.7251677e-06 2.575684e-05 8.4147634e-07 -8.8181799e-06    48.220429    48.218772    48.220072    112117.93 
  172000            0   -2736.9985 4.5738899e-08 9.2974916e-08 -1.2639791e-08 5.6881573e-08 5.8389198e-06 -2.9716665e-06 5.3996897e-06    48.220429    48.218772    48.220072    112117.93 
  172500            0   -2736.9985 -3.5412845e-06 7.1981049e-05 -0.00012479193 4.2187027e-05 -1.3437141e-05 2.0495736e-05 -2.4698059e-05    48.220429    48.218773    48.220072    112117.93 
  173000            0   -2736.9985 1.3915007e-06 -1.7823364e-05 6.0074105e-05 -3.807624e-05 -1.8846016e-05 1.9749709e-05 3.5237637e-05    48.220429    48.218773    48.220072    112117.93 
  173500            0   -2736.9985 -1.2109041e-07 5.4178693e-07 -2.1954959e-07 -6.8550855e-07 2.3533886e-05 1.0179123e-05 -3.1954123e-05    48.220428    48.218773    48.220071    112117.93 
  174000            0   -2736.9985 -1.8259937e-05 -1.8056569e-05 -2.5578554e-05 -1.1144687e-05 5.6589834e-06 -1.563445e-05 -3.2370204e-06    48.220428    48.218773    48.220072    112117.93 
  174500            0   -2736.9985 -4.9488276e-07 -4.5416236e-07 -1.0390609e-06 8.5749622e-09 -2.1158763e-06 1.136189e-05 5.5112049e-06    48.220428    48.218773    48.220072    112117.93 
  175000            0   -2736.9985 -2.448564e-05 0.00017524711 6.0847557e-07 -0.0002493125 0.00014821522 -7.1148548e-05 -3.8460343e-05    48.220427    48.218774    48.220071    112117.93 
  175500            0   -2736.9985 -2.5449599e-08 -2.9631764e-06 2.7379287e-06 1.4889889e-07 5.1413296e-06 -3.846142e-06 5.2110103e-06    48.220428    48.218774    48.220071    112117.93 
  176000            0   -2736.9985 7.8652531e-05 -0.00017192342 0.00023830199 0.00016957903 -1.0621233e-05 3.0268156e-05 -3.0212623e-05    48.220428    48.218774    48.220071    112117.93 
  176500            0   -2736.9985 5.0405938e-07 -5.3199538e-06 -1.8392184e-06 8.6713503e-06 1.3290146e-05 1.111931e-05 5.3362687e-07    48.220428    48.218775    48.220071    112117.93 
  177000            0   -2736.9985 8.2425206e-06 7.7127964e-06 7.8764703e-06 9.138295e-06 -1.2641426e-05 5.301821e-06 -2.9302323e-06    48.220428    48.218775    48.220071    112117.93 
  177500            0   -2736.9985 -1.1462151e-06 -5.167467e-07 -3.2170914e-07 -2.6001893e-06 2.6295529e-05 -4.3448702e-06 1.8732276e-05    48.220427    48.218775    48.220071    112117.93 
  178000            0   -2736.9985 -7.9869068e-05 -6.8986894e-05 -8.8280468e-05 -8.2339841e-05 8.4576623e-06 -2.4180391e-05 -4.2506333e-06    48.220427    48.218775    48.220071    112117.93 
  178500            0   -2736.9985 -3.5063324e-05 -9.9149219e-05 -9.366923e-05 8.7628478e-05 2.4881641e-05 -5.0306466e-05 -1.5987645e-05    48.220427    48.218776    48.220071    112117.93 
  179000            0   -2736.9985 8.9325985e-06 8.7547409e-06 9.5825444e-06 8.4605102e-06 -8.111001e-06 1.8562609e-05 1.0046495e-05    48.220427    48.218776    48.220071    112117.93 
  179500            0   -2736.9985 -1.0462802e-07 1.6195484e-05 -3.5251202e-05 1.8741834e-05 5.6849569e-05 -5.2199419e-05 -1.2878592e-05    48.220427    48.218776    48.220071    112117.93 
  180000            0   -2736.9985 -1.3989866e-05 -1.3925954e-05 -1.4700403e-05 -1.334324e-05 2.9481271e-06 -4.6813244e-06 -6.4445297e-07    48.220427    48.218776     48.22007    112117.93 
  180500            0   -2736.9985 -2.3826017e-05 -2.2504732e-05 -2.2828101e-05 -2.6145217e-05 -1.4112595e-05 4.6928436e-06 -3.9048128e-06    48.220426    48.218776     48.22007    112117.93 
  181000            0   -2736.9985 8.2330959e-06 -6.0982901e-05 -1.408564e-05 9.9767829e-05 -2.9178614e-05 6.315461e-05 1.6354326e-05    48.220427    48.218777     48.22007    112117.93 
  181500            0   -2736.9985 -1.2896644e-06 -2.2116039e-07 -3.3464797e-06 -3.0135301e-07 -9.6809524e-07 2.7024711e-06 1.1381308e-05    48.220426    48.218777     48.22007    112117.93 
  182000            0   -2736.9985 3.7723989e-05 3.5122012e-05 3.8200679e-05 3.9849275e-05 2.0897307e-06 1.7095669e-05 1.0042641e-05    48.220426    48.218777     48.22007    112117.93 
  182500            0   -2736.9985 9.2791156e-07 1.1723389e-06 4.9886446e-06 -3.3772487e-06 -3.6593405e-07 6.6017447e-06 7.8431522e-06    48.220426    48.218777     48.22007    112117.93 
  183000            0   -2736.9985 -6.8126894e-07 2.0439098e-06 -1.8465843e-06 -2.2411323e-06 -7.9489037e-06 -8.319747e-06 -3.6781643e-06    48.220426    48.218777     48.22007    112117.93 
  183500            0   -2736.9985 2.2925793e-05 2.4084301e-05 1.4409527e-05 3.0283552e-05 4.609058e-06 -8.7258285e-05 6.5233428e-05    48.220426    48.218778     48.22007    112117.93 
  184000            0   -2736.9985 7.7121421e-06 1.8488963e-06 6.9026837e-06 1.4384846e-05 1.533677e-05 6.6486967e-06 9.0063237e-06    48.220425    48.218778     48.22007    112117.93 
  184500            0   -2736.9985 3.5953682e-06 1.0276869e-05 -4.0791458e-05 4.1300694e-05 6.8145828e-05 6.9481916e-05 5.3639193e-05    48.220426    48.218779     48.22007    112117.93 
  185000            0   -2736.9985 6.3022077e-05 6.9093119e-05 7.5238499e-05 4.4734613e-05 3.6601269e-06 -1.2290762e-06 -1.9414655e-06    48.220425    48.218779    48.220069    112117.93 
  185500            0   -2736.9985 -1.2241383e-07 -7.8337506e-08 -2.1734809e-07 -7.1555892e-08 -9.6210278e-07 -7.983288e-07 5.876169e-06    48.220425    48.218779    48.220069    112117.93 
  186000            0   -2736.9985 -0.00016200615 -0.00012237213 -0.00021223026 -0.00015141606 -2.1506439e-05 5.7257653e-06 1.9222799e-05    48.220425    48.218779     48.22007    112117.93 
  186500            0   -2736.9985 2.4827871e-05 4.0206999e-05 6.3297511e-05 -2.9020897e-05 1.1254169e-05 1.2578859e-05 -1.5362091e-06    48.220425    48.218779    48.220069    112117.93 
  187000            0   -2736.9985  6.47082e-06 6.4299628e-06 7.1822676e-06 5.8002297e-06 -7.2324249e-07 1.4503115e-05 1.488955e-05    48.220425    48.218779    48.220069    112117.93 
  187500            0   -2736.9985 4.2551535e-08 6.6775036e-07 -1.2103776e-06 6.7028186e-07 -3.8466305e-06 4.4133987e-06 1.0095565e-06    48.220425    48.218779    48.220069    112117.93 
  188000            0   -2736.9985 -1.7320911e-05 -3.0651528e-05 -1.0502975e-05 -1.0808229e-05 2.5259677e-06 -9.5977566e-06 2.6215149e-06    48.220425    48.218779    48.220069    112117.93 
  188500            0   -2736.9985 -2.7019797e-05 -2.5027817e-05 -2.8949727e-05 -2.7081847e-05   2.4292e-06 -1.2215845e-05 6.808242e-06    48.220425     48.21878    48.220069    112117.93 
  189000            0   -2736.9985 1.8017678e-08 -2.7924556e-07 2.0883562e-07 1.2446298e-07 -4.3930362e-06 -7.0170063e-06 -3.9280998e-06    48.220424     48.21878    48.220069    112117.93 
  189500            0   -2736.9985 -4.3939712e-05 -5.7454789e-05 -8.9604363e-06 -6.5403912e-05 -9.3781471e-06 -7.5414662e-06 -2.719864e-07    48.220425    48.218781    48.220069    112117.93 
  190000            0   -2736.9985 2.5823864e-07 4.1424182e-07 2.288299e-07 1.316442e-07 -4.7309627e-06 1.0831194e-05 -1.4157078e-05    48.220424    48.218781    48.220068    112117.93 
  190500            0   -2736.9985 -1.7483657e-06 -2.6698324e-05 -1.0632441e-05 3.2085668e-05 5.6778141e-05 4.1397994e-05 3.1403065e-05    48.220424    48.218781    48.220068    112117.93 
  191000            0   -2736.9985 6.9240506e-07 -6.543883e-06 9.0555079e-06 -4.3440971e-07 3.8655991e-06 -1.418221e-05 -2.0938983e-05    48.220424    48.218781    48.220068    112117.93 
  191500            0   -2736.9985 -3.6831423e-07 8.0923409e-07 -1.7119517e-06 -2.0222508e-07  2.97108e-05  6.35137e-06 -6.0655426e-06    48.220423    48.218782    48.220068    112117.93 
  192000            0   -2736.9985 -4.3793893e-06 -3.9502262e-06 -4.6613031e-06 -4.5266387e-06 8.1916802e-06 4.8064831e-06 -2.1107542e-05    48.220423    48.218781    48.220068    112117.93 
  192500            0   -2736.9985 5.2775706e-06 1.5284238e-05 -2.0380101e-05 2.0928574e-05 5.7890543e-05 1.626494e-05 1.0281855e-05    48.220422    48.218783    48.220067    112117.93 
  193000            0   -2736.9985 -1.9559964e-07 -8.0265932e-07 3.1905562e-06 -2.9746958e-06 1.2405529e-05 1.464996e-05 -1.2089975e-05    48.220423    48.218783    48.220068    112117.93 
  193500            0   -2736.9985 -5.6641809e-06 -4.6069877e-06 -6.4034044e-06 -5.9821505e-06 1.8899901e-05 1.2134752e-05 -6.4144143e-06    48.220422    48.218784    48.220067    112117.93 
  194000            0   -2736.9985 -6.457415e-08 3.1263333e-07 -2.5139137e-07 -2.549644e-07 -6.4110307e-06 -4.9997121e-06 -7.9135018e-07    48.220422    48.218784    48.220067    112117.93 
  194500            0   -2736.9985 -2.1394166e-05 -2.0989532e-05 -4.4224439e-05 1.0314724e-06 9.9866094e-05 2.7355534e-05 -1.5983683e-05    48.220422    48.218784    48.220067    112117.93 
  195000            0   -2736.9985 -3.5659777e-06 -8.3890513e-06 -2.9995361e-06 6.9065431e-07 -5.440812e-06 -1.8152394e-05 1.0909247e-05    48.220422    48.218785    48.220067    112117.93 
  195500            0   -2736.9985 -1.9079347e-05 -1.9868205e-05 -1.9120738e-05 -1.8249099e-05 -1.2758767e-05 -2.4837618e-05 1.2686084e-05    48.220421    48.218785    48.220067    112117.93 
  196000            0   -2736.9985 2.0138304e-06 0.0001798319 -0.00018409697 1.0306557e-05 -4.3215503e-05 -7.1967642e-05 -1.3884264e-05    48.220421    48.218786    48.220067    112117.93 
  196500            0   -2736.9985 -1.2870935e-07 -6.5857154e-06 -1.2779129e-06 7.4775002e-06 6.2054514e-07 5.1610009e-07 2.2380149e-06    48.220421    48.218785    48.220067    112117.93 
  197000            0   -2736.9985 -1.7924234e-05 -2.2788303e-05 5.3292521e-06 -3.631365e-05 3.8148458e-05 4.4773024e-05 -1.1299671e-05    48.220421    48.218786    48.220066    112117.93 
  197500            0   -2736.9985 -1.0296495e-06 -5.6456866e-07 -1.1460129e-06 -1.378367e-06 -1.145938e-05 -1.9142883e-05 -6.5260985e-06    48.220421    48.218786    48.220067    112117.93 
  198000            0   -2736.9985 9.2642171e-08 -9.3271811e-07 1.1275885e-06 8.3056143e-08 -1.2217146e-05 -1.7665555e-05 -5.7478161e-06    48.220421    48.218786    48.220066    112117.93 
  198500            0   -2736.9985 -3.8515883e-06 -4.736949e-06 -3.3336115e-06 -3.4842044e-06 -1.3534917e-05 -9.1349488e-06 6.270121e-06    48.220421    48.218786    48.220066    112117.93 
  199000            0   -2736.9985 1.2118377e-05 1.2176111e-05 1.2187007e-05 1.1992012e-05 -1.1620074e-05 -9.5755513e-06 -4.5941584e-06    48.220421    48.218786    48.220066    112117.93 
  199500            0   -2736.9985 0.00016708719 0.00019090472 0.00013462986 0.00017572698 -1.453888e-05 -1.9865629e-05 4.6595359e-05     48.22042    48.218787    48.220066    112117.93 
  200000            0   -2736.9985 1.253208e-06 -2.5308407e-05 -5.0845215e-06 3.4152552e-05 -1.7812232e-05 -3.3065701e-05 -5.5298236e-06     48.22042    48.218787    48.220066    112117.93 
  200500            0   -2736.9985 -0.00018780888 -0.00028358672 -0.00010792142 -0.0001719185 -1.5004462e-05 -1.6450553e-05 -0.00010069909    48.220421    48.218787    48.220066    112117.93 
  201000            0   -2736.9985 4.7465107e-06 1.4883317e-05 3.0142646e-06 -3.6580496e-06 1.6784873e-05 -6.2924279e-07 -2.5727995e-05    48.220419    48.218788    48.220065    112117.93 
  201500            0   -2736.9985 7.4589717e-06 1.9913915e-05 3.7603086e-06 -1.2973084e-06 7.7782403e-06 1.0656991e-05 -4.5539232e-06     48.22042    48.218788    48.220065    112117.93 
  202000            0   -2736.9985  7.12402e-05 0.00015071013 3.8183263e-05 2.4827213e-05 3.1735563e-05 1.6230505e-05 -1.1471808e-05    48.220419    48.218788    48.220065    112117.93 
  202500            0   -2736.9985 -1.4739269e-08 1.681688e-06 -1.8395512e-06 1.1364543e-07 3.9742571e-06 4.653841e-06 -4.7850911e-06    48.220419    48.218789    48.220065    112117.93 
  203000            0   -2736.9985 -3.9991899e-05 -3.5040197e-05 -5.1106704e-05 -3.3828797e-05 2.9998493e-05 3.2713147e-05 -1.4983739e-05    48.220419    48.218789    48.220065    112117.93 
  203500            0   -2736.9985 1.8489203e-07 -5.7283966e-07 6.4503937e-07 4.8247638e-07 -4.6633086e-05 -3.084058e-05 6.9790425e-05    48.220419    48.218789    48.220065    112117.93 
  204000            0   -2736.9985 1.5469626e-05 -3.4660764e-05 5.1673767e-05 2.9395873e-05 -1.3351412e-05 -7.9287567e-06 1.0066276e-06    48.220419    48.218789    48.220065    112117.93 
  204500            0   -2736.9985 2.8371624e-05 2.6090934e-05 2.7640766e-05 3.1383172e-05 1.3605257e-05 -1.538164e-06 5.051227e-05    48.220419     48.21879    48.220065    112117.93 
  205000            0   -2736.9985 4.5643622e-08 -7.0411407e-06 8.8081105e-06 -1.6300389e-06 -1.9701815e-05 -1.1664599e-05 2.5844636e-06    48.220419     48.21879    48.220065    112117.93 
  205500            0   -2736.9985 -1.1259057e-06 3.5662236e-05 5.2615268e-05 -9.1655221e-05 3.0575203e-05 2.4002605e-05 -2.6647062e-05    48.220419     48.21879    48.220065    112117.93 
  206000            0   -2736.9985 3.4050723e-05 3.761611e-05 3.104398e-05 3.3492079e-05 6.2893382e-05 2.7856981e-05 -7.6054437e-06    48.220418     48.21879    48.220065    112117.93 
  206500            0   -2736.9985 -1.2350458e-06 -1.2665447e-06 -1.2567525e-06 -1.18184e-06 2.4419556e-06 8.265921e-06 3.282238e-06    48.220419     48.21879    48.220065    112117.93 
  207000            0   -2736.9985 -8.7972866e-07 2.1867339e-07 -3.4439003e-06 5.8604097e-07 5.6582535e-06 6.1550006e-06 3.5533927e-05    48.220418    48.218791    48.220065    112117.93 
  207500            0   -2736.9985 -7.2038579e-07 1.9315425e-06 -1.6086047e-06 -2.4840952e-06 3.8898917e-07 -3.6700981e-07 6.5994173e-06    48.220418     48.21879    48.220065    112117.93 
  208000            0   -2736.9985 2.5497427e-06 -1.8413785e-05 1.9337019e-05 6.7259931e-06 1.7873357e-06 1.2933708e-05 2.3360208e-05    48.220418    48.218791    48.220065    112117.93 
  208500            0   -2736.9985 1.4226822e-07 -1.4447993e-06 -3.5107127e-07 2.2226753e-06 -3.7129074e-06 -5.5795641e-06 -2.9224011e-06    48.220418    48.218791    48.220064    112117.93 
[...]
  max neighbors/atom: 2000, page size: 100000
  master list distance cutoff = 7
  ghost atom cutoff = 7
  1 neighbor lists, perpetual/occasional/extra = 1 0 0
  (1) pair rebo, perpetual
      attributes: full, newton on, ghost
      pair build: full/nsq/ghost
      stencil: none
      bin: none
Per MPI rank memory allocation (min/avg/max) = 4.879 | 4.879 | 4.879 Mbytes
Step Temp PotEng Press Pxx Pyy Pzz Pxy Pxz Pyz Lx Ly Lz Volume 
 1259352            0   -2736.9985  0.012634462  0.079260777 -0.0081580758 -0.033199316   0.71333873 -0.0051233169 -0.030089205    48.220339    48.218923    48.220011    112117.93 
 1259500            0   -2736.9985 -6.5144184e-05 2.4512708e-05 -0.0001230915 -9.6853757e-05 1.4554756e-07 -2.9729474e-05 -9.704217e-06    48.220339    48.218923    48.220011    112117.93 
 1260000            0   -2736.9985 4.5920035e-08 1.4695382e-08 -1.261461e-09 1.2432618e-07 -6.029453e-08 1.5628715e-08 1.450109e-08    48.220339    48.218923    48.220011    112117.93 
 1260159            0   -2736.9985 2.2501611e-10 -2.9341416e-10 3.209847e-10 6.474778e-10 8.985414e-11 -3.9183868e-10 -7.276034e-10    48.220339    48.218923    48.220011    112117.93 
Loop time of 1.0534 on 1 procs for 807 steps with 408 atoms

99.3% CPU use with 1 MPI tasks x no OpenMP threads

Minimization stats:
  Stopping criterion = force tolerance
  Energy initial, next-to-last, final = 
        -2736.99853506     -2736.99853626     -2736.99853626
  Force two-norm initial, final = 0.0141843 9.54657e-11
  Force max component initial, final = 0.00123721 1.18827e-11
  Final line search alpha, max atom move = 1 1.18827e-11
  Iterations, force evaluations = 807 1614

MPI task timing breakdown:
Section |  min time  |  avg time  |  max time  |%varavg| %total
---------------------------------------------------------------
Pair    | 1.0357     | 1.0357     | 1.0357     |   0.0 | 98.32
Neigh   | 0          | 0          | 0          |   0.0 |  0.00
Comm    | 0.0031352  | 0.0031352  | 0.0031352  |   0.0 |  0.30
Output  | 0.00073671 | 0.00073671 | 0.00073671 |   0.0 |  0.07
Modify  | 0          | 0          | 0          |   0.0 |  0.00
Other   |            | 0.01381    |            |       |  1.31

Nlocal:    408 ave 408 max 408 min
Histogram: 1 0 0 0 0 0 0 0 0 0
Nghost:    390 ave 390 max 390 min
Histogram: 1 0 0 0 0 0 0 0 0 0
Neighs:    0 ave 0 max 0 min
Histogram: 1 0 0 0 0 0 0 0 0 0
FullNghs:  15786 ave 15786 max 15786 min
Histogram: 1 0 0 0 0 0 0 0 0 0

Total # of neighbors = 15786
Ave neighs/atom = 38.6912
Neighbor list builds = 0
Dangerous builds = 0

# Obtain new stress tensor

variable tmp equal pxx
variable pxx1 equal ${tmp}
variable pxx1 equal -2.93414159213585e-10
variable tmp equal pyy
variable pyy1 equal ${tmp}
variable pyy1 equal 3.20984701647504e-10
variable tmp equal pzz
variable pzz1 equal ${tmp}
variable pzz1 equal 6.47477800310231e-10
variable tmp equal pxy
variable pxy1 equal ${tmp}
variable pxy1 equal 8.98541397909649e-11
variable tmp equal pxz
variable pxz1 equal ${tmp}
variable pxz1 equal -3.91838679383652e-10
variable tmp equal pyz
variable pyz1 equal ${tmp}
variable pyz1 equal -7.27603400211405e-10

# Compute elastic constant from pressure tensor

variable C1neg equal ${d1}
variable C1neg equal -1.04193106445226e-09
variable C2neg equal ${d2}
variable C2neg equal 2.02871469795718e-09
variable C3neg equal ${d3}
variable C3neg equal 5.66920667002334e-09
variable C4neg equal ${d4}
variable C4neg equal -1.15748682626126e-08
variable C5neg equal ${d5}
variable C5neg equal -1.56171622588941e-08
variable C6neg equal ${d6}
variable C6neg equal -1.28803520091412e-08

# Reset box and simulation parameters

clear
box tilt large
read_restart restart.equil
  triclinic box = (-24.1102 -24.1095 -24.11) to (24.1102 24.1095 24.11) with tilt (0 0 0)
  1 by 1 by 1 MPI processor grid
  408 atoms
include potential.mod
# NOTE: This script can be modified for different pair styles
# See in.elastic for more info.

# Choose potential
pair_style     rebo
pair_coeff     * * CH.airebo C
Reading potential file CH.airebo with DATE: 2011-10-25

#pair_style     lcbop
#pair_coeff     C.lcbop
#pair_style     tersoff
#pair_coeff     BNC.tersoff


# Setup neighbor style
neighbor 1.0 nsq
neigh_modify once no every 1 delay 0 check yes

# Setup minimization style
min_style	     cg
min_modify	     dmax ${dmax} line quadratic
min_modify	     dmax 0.01 line quadratic

# Setup output
thermo		500
thermo_style custom step temp pe press pxx pyy pzz pxy pxz pyz lx ly lz vol
thermo_modify norm no


# Output
dump            1 all xtc 100 traj.xtc
dump            2 all xyz 2000 relaxed.xyz
#dump            4 all atom 10 dump.atom

# Positive deformation

variable delta equal ${up}*${len0}
variable delta equal 1.0e-5*${len0}
variable delta equal 1.0e-5*48.2189226560944
variable deltaxy equal ${up}*xy
variable deltaxy equal 1.0e-5*xy
variable deltaxz equal ${up}*xz
variable deltaxz equal 1.0e-5*xz
variable deltayz equal ${up}*yz
variable deltayz equal 1.0e-5*yz
if "${dir} == 1" then    "change_box all x delta 0 ${delta} xy delta ${deltaxy} xz delta ${deltaxz} remap units box"
if "${dir} == 2" then    "change_box all y delta 0 ${delta} yz delta ${deltayz} remap units box"
if "${dir} == 3" then    "change_box all z delta 0 ${delta} remap units box"
if "${dir} == 4" then    "change_box all yz delta ${delta} remap units box"
if "${dir} == 5" then    "change_box all xz delta ${delta} remap units box"
if "${dir} == 6" then    "change_box all xy delta ${delta} remap units box"
change_box all xy delta ${delta} remap units box
change_box all xy delta 0.000482189226560944 remap units box
  triclinic box = (-24.1102 -24.1095 -24.11) to (24.1102 24.1095 24.11) with tilt (0.000482189 0 0)

# Relax atoms positions

minimize ${etol} ${ftol} ${maxiter} ${maxeval}
minimize 0 ${ftol} ${maxiter} ${maxeval}
minimize 0 1e-10 ${maxiter} ${maxeval}
minimize 0 1e-10 10000000 ${maxeval}
minimize 0 1e-10 10000000 10000000
Neighbor list info ...
  update every 1 steps, delay 0 steps, check yes
  max neighbors/atom: 2000, page size: 100000
  master list distance cutoff = 7
  ghost atom cutoff = 7
  1 neighbor lists, perpetual/occasional/extra = 1 0 0
  (1) pair rebo, perpetual
      attributes: full, newton on, ghost
      pair build: full/nsq/ghost
      stencil: none
      bin: none
Per MPI rank memory allocation (min/avg/max) = 4.879 | 4.879 | 4.879 Mbytes
Step Temp PotEng Press Pxx Pyy Pzz Pxy Pxz Pyz Lx Ly Lz Volume 
 1259352            0   -2736.9985 0.0085449948  0.081332912 -0.0061306517 -0.049567275  -0.82399228 -0.019852341 -0.045270564    48.220339    48.218923    48.220011    112117.93 
 1259500            0   -2736.9985 7.6596277e-05 -3.059417e-05 0.00015941748 0.00010096553 5.3168308e-06 4.0318699e-05 4.8699414e-05    48.220339    48.218923    48.220011    112117.93 
 1260000            0   -2736.9985 4.9551961e-07 1.1150405e-06 2.3015576e-07 1.4136261e-07 -1.0801485e-07 -3.467454e-07 -1.533796e-08    48.220339    48.218923    48.220011    112117.93 
 1260500            0   -2736.9985 -1.4081554e-08 -3.454113e-08 -3.184153e-08 2.4137999e-08 5.9054671e-08 2.9782405e-09 -3.7151593e-08    48.220339    48.218923    48.220011    112117.93 
 1260587            0   -2736.9985 8.9130475e-10 4.8790563e-10 1.6146203e-09 5.7138831e-10 1.2354833e-09 1.3527716e-09 6.6322877e-10    48.220339    48.218923    48.220011    112117.93 
Loop time of 1.6089 on 1 procs for 1235 steps with 408 atoms

99.2% CPU use with 1 MPI tasks x no OpenMP threads

Minimization stats:
  Stopping criterion = force tolerance
  Energy initial, next-to-last, final = 
        -2736.99853498     -2736.99853626     -2736.99853626
  Force two-norm initial, final = 0.014942 9.88646e-11
  Force max component initial, final = 0.00141704 1.22039e-11
  Final line search alpha, max atom move = 1 1.22039e-11
  Iterations, force evaluations = 1235 2470

MPI task timing breakdown:
Section |  min time  |  avg time  |  max time  |%varavg| %total
---------------------------------------------------------------
Pair    | 1.5818     | 1.5818     | 1.5818     |   0.0 | 98.32
Neigh   | 0          | 0          | 0          |   0.0 |  0.00
Comm    | 0.0047939  | 0.0047939  | 0.0047939  |   0.0 |  0.30
Output  | 0.00089216 | 0.00089216 | 0.00089216 |   0.0 |  0.06
Modify  | 0          | 0          | 0          |   0.0 |  0.00
Other   |            | 0.0214     |            |       |  1.33

Nlocal:    408 ave 408 max 408 min
Histogram: 1 0 0 0 0 0 0 0 0 0
Nghost:    390 ave 390 max 390 min
Histogram: 1 0 0 0 0 0 0 0 0 0
Neighs:    0 ave 0 max 0 min
Histogram: 1 0 0 0 0 0 0 0 0 0
FullNghs:  15786 ave 15786 max 15786 min
Histogram: 1 0 0 0 0 0 0 0 0 0

Total # of neighbors = 15786
Ave neighs/atom = 38.6912
Neighbor list builds = 0
Dangerous builds = 0

# Obtain new stress tensor

variable tmp equal pe
variable e1 equal ${tmp}
variable e1 equal -2736.99853626144
variable tmp equal press
variable p1 equal ${tmp}
variable p1 equal 8.91304751907697e-10
variable tmp equal pxx
variable pxx1 equal ${tmp}
variable pxx1 equal 4.8790563101552e-10
variable tmp equal pyy
variable pyy1 equal ${tmp}
variable pyy1 equal 1.61462031772976e-09
variable tmp equal pzz
variable pzz1 equal ${tmp}
variable pzz1 equal 5.71388306977816e-10
variable tmp equal pxy
variable pxy1 equal ${tmp}
variable pxy1 equal 1.23548331648662e-09
variable tmp equal pxz
variable pxz1 equal ${tmp}
variable pxz1 equal 1.35277155800203e-09
variable tmp equal pyz
variable pyz1 equal ${tmp}
variable pyz1 equal 6.63228769655607e-10

# Compute elastic constant from pressure tensor

variable C1pos equal ${d1}
variable C1pos equal -6.77126683783879e-09
variable C2pos equal ${d2}
variable C2pos equal -1.49650708587797e-08
variable C3pos equal ${d3}
variable C3pos equal -4.90831173669919e-09
variable C4pos equal ${d4}
variable C4pos equal -2.33345343605748e-09
variable C5pos equal ${d5}
variable C5pos equal -1.8289401149627e-09
variable C6pos equal ${d6}
variable C6pos equal 1.4240602421847e-09

# Combine positive and negative

variable C1${dir} equal 0.5*(${C1neg}+${C1pos})
variable C16 equal 0.5*(${C1neg}+${C1pos})
variable C16 equal 0.5*(-1.04193106445226e-09+${C1pos})
variable C16 equal 0.5*(-1.04193106445226e-09+-6.77126683783879e-09)
variable C2${dir} equal 0.5*(${C2neg}+${C2pos})
variable C26 equal 0.5*(${C2neg}+${C2pos})
variable C26 equal 0.5*(2.02871469795718e-09+${C2pos})
variable C26 equal 0.5*(2.02871469795718e-09+-1.49650708587797e-08)
variable C3${dir} equal 0.5*(${C3neg}+${C3pos})
variable C36 equal 0.5*(${C3neg}+${C3pos})
variable C36 equal 0.5*(5.66920667002334e-09+${C3pos})
variable C36 equal 0.5*(5.66920667002334e-09+-4.90831173669919e-09)
variable C4${dir} equal 0.5*(${C4neg}+${C4pos})
variable C46 equal 0.5*(${C4neg}+${C4pos})
variable C46 equal 0.5*(-1.15748682626126e-08+${C4pos})
variable C46 equal 0.5*(-1.15748682626126e-08+-2.33345343605748e-09)
variable C5${dir} equal 0.5*(${C5neg}+${C5pos})
variable C56 equal 0.5*(${C5neg}+${C5pos})
variable C56 equal 0.5*(-1.56171622588941e-08+${C5pos})
variable C56 equal 0.5*(-1.56171622588941e-08+-1.8289401149627e-09)
variable C6${dir} equal 0.5*(${C6neg}+${C6pos})
variable C66 equal 0.5*(${C6neg}+${C6pos})
variable C66 equal 0.5*(-1.28803520091412e-08+${C6pos})
variable C66 equal 0.5*(-1.28803520091412e-08+1.4240602421847e-09)

# Delete dir to make sure it is not reused

variable dir delete

# Output final values

variable C11all equal ${C11}
variable C11all equal -2.41498490575445e-08
variable C22all equal ${C22}
variable C22all equal -3.5656972788947e-09
variable C33all equal ${C33}
variable C33all equal 3.45498972160193e-09

variable C12all equal 0.5*(${C12}+${C21})
variable C12all equal 0.5*(2.41900740534552e-09+${C21})
variable C12all equal 0.5*(2.41900740534552e-09+-7.92419208802698e-09)
variable C13all equal 0.5*(${C13}+${C31})
variable C13all equal 0.5*(1.77612393937876e-08+${C31})
variable C13all equal 0.5*(1.77612393937876e-08+-2.32548469978658e-08)
variable C23all equal 0.5*(${C23}+${C32})
variable C23all equal 0.5*(-1.56764198887735e-08+${C32})
variable C23all equal 0.5*(-1.56764198887735e-08+-3.24857261847159e-09)

variable C44all equal ${C44}
variable C44all equal -2.39516905929832e-09
variable C55all equal ${C55}
variable C55all equal -5.4017828794454e-10
variable C66all equal ${C66}
variable C66all equal -5.72814588347825e-09

variable C14all equal 0.5*(${C14}+${C41})
variable C14all equal 0.5*(-1.40423508979345e-08+${C41})
variable C14all equal 0.5*(-1.40423508979345e-08+1.49672158836985e-08)
variable C15all equal 0.5*(${C15}+${C51})
variable C15all equal 0.5*(1.05992219986489e-08+${C51})
variable C15all equal 0.5*(1.05992219986489e-08+4.2523208174278e-09)
variable C16all equal 0.5*(${C16}+${C61})
variable C16all equal 0.5*(-3.90659895114553e-09+${C61})
variable C16all equal 0.5*(-3.90659895114553e-09+-1.36426383638052e-08)

variable C24all equal 0.5*(${C24}+${C42})
variable C24all equal 0.5*(6.68318325423126e-09+${C42})
variable C24all equal 0.5*(6.68318325423126e-09+8.2437542430042e-09)
variable C25all equal 0.5*(${C25}+${C52})
variable C25all equal 0.5*(-1.99746025636734e-08+${C52})
variable C25all equal 0.5*(-1.99746025636734e-08+-7.796023897423e-09)
variable C26all equal 0.5*(${C26}+${C62})
variable C26all equal 0.5*(-6.46817808041126e-09+${C62})
variable C26all equal 0.5*(-6.46817808041126e-09+3.6146178887182e-09)

variable C34all equal 0.5*(${C34}+${C43})
variable C34all equal 0.5*(-7.11554165129026e-09+${C43})
variable C34all equal 0.5*(-7.11554165129026e-09+2.34783998667568e-08)
variable C35all equal 0.5*(${C35}+${C53})
variable C35all equal 0.5*(-1.27537159925067e-09+${C53})
variable C35all equal 0.5*(-1.27537159925067e-09+-6.97025750762145e-09)
variable C36all equal 0.5*(${C36}+${C63})
variable C36all equal 0.5*(3.80447466662075e-10+${C63})
variable C36all equal 0.5*(3.80447466662075e-10+-5.49397373336165e-09)

variable C45all equal 0.5*(${C45}+${C54})
variable C45all equal 0.5*(1.55009020822595e-08+${C54})
variable C45all equal 0.5*(1.55009020822595e-08+6.67955012371145e-09)
variable C46all equal 0.5*(${C46}+${C64})
variable C46all equal 0.5*(-6.95416084933504e-09+${C64})
variable C46all equal 0.5*(-6.95416084933504e-09+-1.01743837058099e-08)
variable C56all equal 0.5*(${C56}+${C65})
variable C56all equal 0.5*(-8.7230511869284e-09+${C65})
variable C56all equal 0.5*(-8.7230511869284e-09+4.54977410954758e-09)

# Average moduli for cubic crystals

variable C11cubic equal (${C11all}+${C22all}+${C33all})/3.0
variable C11cubic equal (-2.41498490575445e-08+${C22all}+${C33all})/3.0
variable C11cubic equal (-2.41498490575445e-08+-3.5656972788947e-09+${C33all})/3.0
variable C11cubic equal (-2.41498490575445e-08+-3.5656972788947e-09+3.45498972160193e-09)/3.0
variable C12cubic equal (${C12all}+${C13all}+${C23all})/3.0
variable C12cubic equal (-2.75259234134073e-09+${C13all}+${C23all})/3.0
variable C12cubic equal (-2.75259234134073e-09+-2.7468038020391e-09+${C23all})/3.0
variable C12cubic equal (-2.75259234134073e-09+-2.7468038020391e-09+-9.46249625362254e-09)/3.0
variable C44cubic equal (${C44all}+${C55all}+${C66all})/3.0
variable C44cubic equal (-2.39516905929832e-09+${C55all}+${C66all})/3.0
variable C44cubic equal (-2.39516905929832e-09+-5.4017828794454e-10+${C66all})/3.0
variable C44cubic equal (-2.39516905929832e-09+-5.4017828794454e-10+-5.72814588347825e-09)/3.0

variable bulkmodulus equal (${C11cubic}+2*${C12cubic})/3.0
variable bulkmodulus equal (-8.08685220494576e-09+2*${C12cubic})/3.0
variable bulkmodulus equal (-8.08685220494576e-09+2*-4.98729746566746e-09)/3.0
variable shearmodulus1 equal ${C44cubic}
variable shearmodulus1 equal -2.88783107690704e-09
variable shearmodulus2 equal (${C11cubic}-${C12cubic})/2.0
variable shearmodulus2 equal (-8.08685220494576e-09-${C12cubic})/2.0
variable shearmodulus2 equal (-8.08685220494576e-09--4.98729746566746e-09)/2.0
variable poissonratio equal 1.0/(1.0+${C11cubic}/${C12cubic})
variable poissonratio equal 1.0/(1.0+-8.08685220494576e-09/${C12cubic})
variable poissonratio equal 1.0/(1.0+-8.08685220494576e-09/-4.98729746566746e-09)

# For Stillinger-Weber silicon, the analytical results
# are known to be (E. R. Cowley, 1988):
#               C11 = 151.4 GPa
#               C12 = 76.4 GPa
#               C44 = 56.4 GPa

print "========================================="
=========================================
print "Components of the Elastic Constant Tensor"
Components of the Elastic Constant Tensor
print "========================================="
=========================================

print "Elastic Constant C11all = ${C11all} ${cunits}"
Elastic Constant C11all = -2.41498490575445e-08 GPa
print "Elastic Constant C22all = ${C22all} ${cunits}"
Elastic Constant C22all = -3.5656972788947e-09 GPa
print "Elastic Constant C33all = ${C33all} ${cunits}"
Elastic Constant C33all = 3.45498972160193e-09 GPa

print "Elastic Constant C12all = ${C12all} ${cunits}"
Elastic Constant C12all = -2.75259234134073e-09 GPa
print "Elastic Constant C13all = ${C13all} ${cunits}"
Elastic Constant C13all = -2.7468038020391e-09 GPa
print "Elastic Constant C23all = ${C23all} ${cunits}"
Elastic Constant C23all = -9.46249625362254e-09 GPa

print "Elastic Constant C44all = ${C44all} ${cunits}"
Elastic Constant C44all = -2.39516905929832e-09 GPa
print "Elastic Constant C55all = ${C55all} ${cunits}"
Elastic Constant C55all = -5.4017828794454e-10 GPa
print "Elastic Constant C66all = ${C66all} ${cunits}"
Elastic Constant C66all = -5.72814588347825e-09 GPa

print "Elastic Constant C14all = ${C14all} ${cunits}"
Elastic Constant C14all = 4.62432492881999e-10 GPa
print "Elastic Constant C15all = ${C15all} ${cunits}"
Elastic Constant C15all = 7.42577140803835e-09 GPa
print "Elastic Constant C16all = ${C16all} ${cunits}"
Elastic Constant C16all = -8.77461865747536e-09 GPa

print "Elastic Constant C24all = ${C24all} ${cunits}"
Elastic Constant C24all = 7.46346874861773e-09 GPa
print "Elastic Constant C25all = ${C25all} ${cunits}"
Elastic Constant C25all = -1.38853132305482e-08 GPa
print "Elastic Constant C26all = ${C26all} ${cunits}"
Elastic Constant C26all = -1.42678009584653e-09 GPa

print "Elastic Constant C34all = ${C34all} ${cunits}"
Elastic Constant C34all = 8.18142910773327e-09 GPa
print "Elastic Constant C35all = ${C35all} ${cunits}"
Elastic Constant C35all = -4.12281455343606e-09 GPa
print "Elastic Constant C36all = ${C36all} ${cunits}"
Elastic Constant C36all = -2.55676313334979e-09 GPa

print "Elastic Constant C45all = ${C45all} ${cunits}"
Elastic Constant C45all = 1.10902261029855e-08 GPa
print "Elastic Constant C46all = ${C46all} ${cunits}"
Elastic Constant C46all = -8.56427227757247e-09 GPa
print "Elastic Constant C56all = ${C56all} ${cunits}"
Elastic Constant C56all = -2.08663853869041e-09 GPa

print "========================================="
=========================================
print "Average properties for a cubic crystal"
Average properties for a cubic crystal
print "========================================="
=========================================

print "Bulk Modulus = ${bulkmodulus} ${cunits}"
Bulk Modulus = -6.02048237876023e-09 GPa
print "Shear Modulus 1 = ${shearmodulus1} ${cunits}"
Shear Modulus 1 = -2.88783107690704e-09 GPa
print "Shear Modulus 2 = ${shearmodulus2} ${cunits}"
Shear Modulus 2 = -1.54977736963915e-09 GPa
print "Poisson Ratio = ${poissonratio}"
Poisson Ratio = 0.381462472995656
print "Deformation size: ${up}"
Deformation size: 1.0e-5

print "Lattice_type	lattice_constant	bulk_modulus	poisson	     c11	     c12         c44	" file elastic_constants.out
Lattice_type	lattice_constant	bulk_modulus	poisson	     c11	     c12         c44	
print "${lattype}    ${latconst}    ${bulkmodulus}     ${poissonratio}     ${C11all}     ${C12all}     ${C44all}" append elastic_constants.out
sc    10.0    -6.02048237876023e-09     0.381462472995656     -2.41498490575445e-08     -2.75259234134073e-09     -2.39516905929832e-09
Total wall time: 0:28:33
