408
Atoms. Timestep: 1260000
1 23.7994 10.0175 15.6802
1 22.0643 6.70955 15.0335
1 23.0452 7.75126 14.9906
1 20.9614 6.81663 15.933
1 23.5248 11.1364 16.4789
1 21.2918 13.52 20.2381
1 0.303652 13.4387 15.4539
1 2.21928 16.5479 14.5271
1 1.32564 15.4295 14.4338
1 3.07855 16.6785 15.6607
1 0.215894 12.6316 16.5972
1 1.32967 11.2784 21.1884
1 -0.452202 9.5757 7.58703
1 1.67705 6.68188 8.72273
1 0.575638 7.59567 8.62067
1 2.77241 6.7863 7.81066
1 -0.2955 10.6251 6.67126
1 2.12769 13.3064 3.34975
1 -23.7831 14.4634 7.34218
1 22.0258 17.0081 8.79195
1 23.1803 16.1765 8.63412
1 20.9858 16.9669 7.81502
1 -23.8241 13.5631 6.26835
1 22.037 10.8818 2.79396
1 15.6807 23.7985 10.0177
1 15.034 22.0635 6.70975
1 14.9911 23.0443 7.75149
1 15.9335 20.9605 6.81682
1 16.4794 23.5239 11.1366
1 20.2386 21.2908 13.5202
1 15.4542 0.303204 13.439
1 14.5275 2.21877 16.5482
1 14.4342 1.32516 15.4298
1 15.661 3.07802 16.6789
1 16.5975 0.215447 12.6319
1 21.1887 1.32918 11.2786
1 8.37123 0.302105 10.2979
1 9.01847 1.94467 6.96923
1 9.13899 1.05191 8.0856
1 8.00111 2.94845 6.97025
1 7.40573 0.440123 11.3046
1 3.13748 1.9911 13.1611
1 7.3423 -23.7827 14.4637
1 8.79249 22.0248 17.0085
1 8.63469 23.1793 16.1768
1 7.81554 20.9848 16.9672
1 6.26847 -23.8237 13.5634
1 2.79453 22.0361 10.8822
1 10.0181 15.6797 23.7989
1 6.71014 15.0331 22.0639
1 7.75187 14.9902 23.0447
1 6.81723 15.9326 20.961
1 11.1371 16.4785 23.5243
1 13.5207 20.2376 21.2912
1 13.4395 15.4535 0.303267
1 16.5488 14.5267 2.21883
1 15.4304 14.4334 1.32521
1 16.6795 15.6603 3.07811
1 12.6325 16.5967 0.215529
1 11.2792 21.1879 1.32935
1 9.87565 7.93104 -0.175682
1 7.1 9.12482 2.07356
1 8.09359 9.11136 1.03896
1 7.00983 8.02792 2.985
1 10.655 6.76939 -0.262544
1 12.4375 2.48101 1.31856
1 14.4642 7.34209 -23.7834
1 17.009 8.79181 22.0253
1 16.1773 8.634 23.1798
1 16.9677 7.81489 20.9853
1 13.5639 6.26827 -23.8243
1 10.8826 2.79395 22.0365
1 21.367 12.4111 19.3547
1 18.7544 10.0383 20.7632
1 19.6002 11.1775 20.6027
1 18.792 8.99562 19.7916
1 22.2817 12.3448 18.2898
1 -23.3316 9.853 14.798
1 1.55782 12.0995 20.0448
1 4.59812 14.1267 21.1108
1 3.50503 13.2066 21.151
1 4.74043 14.9998 19.9942
1 0.73594 11.9228 18.9033
1 -0.432596 13.3254 14.2629
1 22.0868 12.0069 3.65858
1 18.7141 13.6548 3.08379
1 19.7851 12.7128 3.0233
1 18.8062 14.7617 3.97678
1 23.2087 12.3171 4.44602
1 -22.7395 14.6129 8.28042
1 2.02051 12.1413 4.16481
1 5.1232 10.1749 3.16628
1 4.15199 11.2213 3.24466
1 5.02839 9.06048 4.04951
1 0.883529 11.9983 4.99849
1 -1.53326 9.35045 8.45505
1 11.5323 3.57402 1.45657
1 9.81649 2.78077 4.76202
1 10.6871 2.685 3.6319
1 8.85492 3.83139 4.82112
1 11.5325 4.58405 0.462631
1 9.91753 9.05643 -1.0151
1 12.0076 3.65855 22.0862
1 13.6555 3.08374 18.7135
1 12.7135 3.02326 19.7845
1 14.7625 3.9767 18.8056
1 12.3179 4.44597 23.2082
1 14.6137 8.28032 -22.7397
1 12.1004 20.0444 1.55748
1 14.1276 21.1103 4.59774
1 13.2075 21.1505 3.50468
1 15.0007 19.9938 4.74003
1 11.9236 18.9028 0.735599
1 13.3263 14.2625 -0.432984
1 12.4118 19.3542 21.3664
1 10.039 20.7627 18.7539
1 11.1782 20.6021 19.5996
1 8.99627 19.7912 18.7915
1 12.3455 18.2893 22.2811
1 9.85363 14.7976 -23.3318
1 3.65915 22.0858 12.0072
1 3.08428 18.7131 13.6552
1 3.02382 19.7842 12.7131
1 3.97727 18.8052 14.7621
1 4.4466 23.2078 12.3174
1 8.28056 -22.7391 14.6132
1 4.16613 2.07848 12.1775
1 2.83193 4.79236 9.86439
1 2.91433 3.84445 10.9315
1 3.88742 4.86905 8.90965
1 5.30253 1.24184 12.3083
1 9.43818 -0.610376 10.253
1 19.3552 21.366 12.4113
1 20.7637 18.7535 10.0385
1 20.6032 19.5993 11.1777
1 19.7921 18.7911 8.99578
1 18.2903 22.2807 12.345
1 14.798 -23.3311 9.85326
1 20.0451 1.55733 12.0998
1 21.1111 4.59757 14.1271
1 21.1513 3.5045 13.2069
1 19.9946 4.73987 15.0002
1 18.9036 0.735475 11.9231
1 14.2632 -0.433023 13.3257
1 11.5744 2.16266 19.6891
1 13.9778 4.73705 21.0277
1 12.8953 3.79755 20.966
1 14.8868 4.84465 19.9309
1 11.4453 1.44858 18.4891
1 13.139 -0.393508 14.1765
1 12.2515 21.5469 19.5421
1 10.1577 18.6109 20.6355
1 11.2604 19.5225 20.5248
1 9.04473 18.7343 19.7481
1 12.06 22.64 18.6849
1 9.36098 -22.8364 15.4504
1 11.6238 1.60793 3.54461
1 9.7409 4.74178 2.70577
1 10.6576 3.65722 2.58865
1 8.82769 4.81924 3.79549
1 11.6603 0.734948 4.64077
1 10.357 -0.812199 9.20237
1 12.3793 22.3006 3.31426
1 13.9335 18.9274 2.78935
1 13.074 20.0488 2.60871
1 14.9235 18.9173 3.81195
1 12.5214 23.3229 4.26385
1 14.0682 -23.1404 8.70921
1 19.6897 11.5737 2.16268
1 21.0283 13.9771 4.73712
1 20.9666 12.8946 3.7976
1 19.9315 14.886 4.84473
1 18.4897 11.4446 1.44858
1 14.1771 13.1382 -0.393488
1 19.5426 12.2508 21.5474
1 20.636 10.1571 18.6114
1 20.5254 11.2597 19.523
1 19.7486 9.04409 18.7348
1 18.6854 12.0592 22.6405
1 15.4509 9.36072 -22.837
1 4.2763 12.3723 2.40528
1 2.95173 10.0011 4.99205
1 3.03835 11.1332 4.13147
1 3.95736 8.99312 4.98595
1 5.36979 12.3778 1.52811
1 9.14628 10.2332 -0.920258
1 3.3146 12.3785 22.301
1 2.78973 13.9326 18.9279
1 2.60907 13.0731 20.0493
1 3.81235 14.9226 18.9177
1 4.26419 12.5206 23.3234
1 8.70957 14.0677 -23.141
1 2.1632 19.6888 11.5741
1 4.73766 21.0273 13.9774
1 3.79814 20.9656 12.8949
1 4.84524 19.9305 14.8863
1 1.44908 18.4887 11.4449
1 -0.393078 14.1762 13.1387
1 21.5479 19.5417 12.251
1 18.6119 20.6351 10.1573
1 19.5235 20.5244 11.2599
1 18.7353 19.7477 9.04426
1 22.641 18.6845 12.0594
1 -22.8368 15.45 9.36084
1 1.85046 3.7489 11.8823
1 5.06067 3.04002 10.0784
1 4.04433 2.986 11.0753
1 4.97999 3.95905 8.99401
1 0.750853 4.58945 11.6603
1 -1.66147 8.33808 9.42826
1 22.3014 3.31407 12.3788
1 18.9282 2.78922 13.9329
1 20.0496 2.60856 13.0734
1 18.9181 3.81182 14.9229
1 23.3237 4.26364 12.5209
1 -23.1409 8.70895 14.0682
1 13.2631 0.51016 15.2648
1 16.6806 2.06287 14.6692
1 15.5231 1.24182 14.5161
1 16.7208 3.01874 15.7269
1 12.2815 0.646825 16.2621
1 10.733 2.10922 20.8127
1 9.60388 -23.9798 16.2413
1 6.61759 22.1663 15.1537
1 7.52825 23.2652 15.2766
1 6.75289 21.0383 16.0174
1 10.7071 24.0145 17.0778
1 13.3599 21.2892 20.3657
1 14.1188 -24.0386 7.62157
1 16.7322 21.7954 9.00092
1 15.7969 22.8773 8.92011
1 16.8223 20.8597 7.92749
1 13.3802 -23.9612 6.43161
1 11.4938 22.2537 2.22643
1 10.1696 0.0514605 8.0912
1 7.14864 2.10817 9.13166
1 8.222 1.16732 9.16884
1 7.04911 3.00901 8.03049
1 10.9627 -0.0114933 6.93253
1 12.4148 1.56236 2.38654
1 -0.549963 7.45786 9.50217
1 1.74962 8.78701 6.78307
1 0.630326 8.6434 7.65787
1 2.80321 7.82677 6.8357
1 -0.460397 6.42054 10.4463
1 2.03314 2.83539 12.9315
1 -24.0391 7.62133 14.1188
1 21.7963 9.00071 16.7317
1 22.8782 8.91989 15.7964
1 20.8605 7.92731 16.8218
1 -23.9617 6.43138 13.3802
1 22.2545 2.22624 11.4933
1 -23.9802 16.241 9.60377
1 22.1673 15.1534 6.61704
1 23.2662 15.2763 7.52768
1 21.0392 16.017 6.75236
1 24.0156 17.0775 10.7065
1 21.2903 20.3653 13.3593
1 0.510618 15.2645 13.2627
1 2.06337 14.6688 16.6803
1 1.2423 14.5158 15.5228
1 3.01926 15.7266 16.7204
1 0.647292 16.2617 12.2812
1 2.10977 20.8123 10.7326
1 7.62193 14.1184 -24.0392
1 9.00134 16.7312 21.7959
1 8.92051 15.796 22.8778
1 7.92792 16.8214 20.8601
1 6.43196 13.3798 -23.9618
1 2.22674 11.493 22.2541
1 8.21054 10.2314 0.147507
1 8.87797 6.89191 1.83457
1 8.94148 7.97501 0.906486
1 7.92511 6.93766 2.89492
1 7.32986 11.2991 0.39264
1 3.27264 13.345 2.52949
1 15.2654 13.2623 0.510188
1 14.6697 16.6799 2.06296
1 14.5167 15.5224 1.24189
1 15.7275 16.72 3.01884
1 16.2627 12.2808 0.646838
1 20.8133 10.7323 2.10922
1 16.2418 9.60364 -23.9804
1 15.1542 6.61694 22.1667
1 15.2771 7.52757 23.2656
1 16.0178 6.75225 21.0387
1 17.0784 10.7064 24.0151
1 20.3662 13.3591 21.2898
1 22.1582 5.56694 14.1797
1 19.9503 5.81147 15.938
1 18.8846 5.87861 16.881
1 2.25762 17.5567 13.5159
1 3.99369 17.7712 15.7433
1 4.92927 17.8373 16.8164
1 1.71354 5.67127 9.73319
1 3.84946 5.85192 7.8782
1 4.89896 5.89962 6.91376
1 21.8855 17.8785 9.91632
1 19.8889 17.8743 7.90779
1 18.8782 17.8661 6.9031
1 14.1803 22.1574 5.56714
1 15.9386 19.9495 5.81164
1 16.8815 18.8838 5.87875
1 13.5163 2.2571 17.5571
1 15.7437 3.99313 17.7716
1 16.8168 4.92869 17.8377
1 9.89526 1.8517 5.84403
1 7.93061 3.8948 5.90432
1 6.9318 4.91284 5.9173
1 9.91686 21.8844 17.8788
1 7.90829 19.888 17.8747
1 6.90358 18.8772 17.8665
1 5.56751 14.1794 22.1579
1 5.81205 15.9376 19.9499
1 5.87919 16.8806 18.8842
1 17.5577 13.5156 2.25715
1 17.7722 15.7429 3.99322
1 17.8382 16.816 4.9288
1 6.18227 10.2127 2.20863
1 5.99636 8.01583 3.98987
1 5.94327 6.95348 4.93956
1 17.8794 9.91617 21.8849
1 17.8752 7.90765 19.8884
1 17.867 6.90296 18.8777
1 14.1663 5.58376 22.1644
1 15.9224 5.82634 19.9572
1 16.8682 5.88633 18.892
1 10.1348 17.587 21.6332
1 7.96682 17.8018 19.8243
1 6.91894 17.8544 18.8586
1 9.75359 5.76742 1.72539
1 7.89204 5.89244 3.86381
1 6.92256 5.91864 4.90755
1 13.7907 17.8 1.94044
1 15.8331 17.8257 3.9112
1 16.8511 17.8422 4.90736
1 22.1649 14.1655 5.58384
1 19.9578 15.9216 5.82644
1 18.8926 16.8673 5.88645
1 21.6337 10.1341 17.5874
1 19.8247 7.9662 17.8023
1 18.859 6.91833 17.8548
1 1.83956 9.87816 5.86437
1 3.88833 7.91472 5.91509
1 4.91088 6.92242 5.9219
1 1.94082 13.7899 17.8005
1 3.91162 15.8322 17.8261
1 4.9078 16.8502 17.8427
1 5.5844 22.164 14.1658
1 5.82695 19.9568 15.9219
1 5.88693 18.8916 16.8677
1 17.5879 21.6328 10.1344
1 17.8028 19.8239 7.96637
1 17.8553 18.8582 6.91848
1 6.16445 2.15281 10.167
1 5.99123 3.96401 7.98971
1 5.94006 4.92618 6.94041
1 17.8008 1.94033 13.7902
1 17.8265 3.91108 15.8326
1 17.8431 4.90723 16.8506
1 22.5061 11.2581 17.4343
1 0.958163 12.7581 17.7871
1 0.804653 10.8567 5.82416
1 23.311 13.3257 5.41329
1 17.4348 22.5051 11.2584
1 17.7874 0.957695 12.7583
1 6.27829 1.28309 11.2897
1 5.41387 23.31 13.326
1 11.2588 17.4338 22.5056
1 12.7589 17.7866 0.957801
1 10.6626 5.68212 0.631587
1 13.3265 5.41322 23.3105
1 12.357 1.42865 17.4229
1 10.9389 22.8873 17.8786
1 10.8779 0.812086 5.80216
1 13.3375 23.3031 5.40527
1 17.4235 12.3563 1.42867
1 17.8792 10.9382 22.8878
1 6.30852 11.3509 1.35052
1 5.40562 13.3366 23.3036
1 1.42915 17.4226 12.3567
1 22.8883 17.8783 10.9383
1 0.617497 5.54778 10.645
1 23.304 5.40505 13.3369
1 22.0568 14.632 20.0864
1 0.330156 10.3592 21.2348
1 1.19284 14.2922 3.36492
1 23.0803 10.0249 2.64465
1 20.0869 22.0559 14.6322
1 21.235 0.329692 10.3594
1 3.22161 1.15394 14.2279
1 2.64524 23.0793 10.0252
1 14.6327 20.0858 22.0563
1 10.36 21.2343 0.329856
1 13.2605 2.3503 0.245426
1 10.0256 2.64465 23.0797
1 -0.238671 10.9712 18.8859
1 -0.102421 12.9382 5.00188
1 12.3627 4.50356 -0.614395
1 10.972 18.8855 -0.238994
1 5.43656 0.408366 13.3774
1 18.8862 -0.239114 10.9714
1 12.0347 -1.16024 13.9824
1 11.3347 -1.75421 9.24246
1 13.983 12.0339 -1.16025
1 9.28035 11.2793 -1.77627
1 -1.15984 13.9821 12.0344
1 -2.74776 8.21721 10.2347
408
Atoms. Timestep: 1260587
1 23.7994 10.0175 15.6802
1 22.0643 6.70955 15.0335
1 23.0452 7.75126 14.9906
1 20.9614 6.81663 15.933
1 23.5248 11.1364 16.4789
1 21.2918 13.52 20.2381
1 0.303652 13.4387 15.4539
1 2.21928 16.5479 14.5271
1 1.32564 15.4295 14.4338
1 3.07855 16.6785 15.6607
1 0.215894 12.6316 16.5972
1 1.32967 11.2784 21.1884
1 -0.452198 9.57571 7.58704
1 1.67705 6.68188 8.72272
1 0.575638 7.59567 8.62067
1 2.77241 6.7863 7.81066
1 -0.295494 10.6251 6.67126
1 2.1277 13.3064 3.34976
1 -23.7831 14.4634 7.34218
1 22.0258 17.0081 8.79195
1 23.1803 16.1765 8.63412
1 20.9858 16.9669 7.81502
1 -23.8241 13.5631 6.26835
1 22.037 10.8818 2.79396
1 15.6807 23.7985 10.0177
1 15.034 22.0635 6.70975
1 14.9911 23.0443 7.75149
1 15.9335 20.9605 6.81682
1 16.4794 23.5239 11.1366
1 20.2386 21.2908 13.5202
1 15.4542 0.303204 13.439
1 14.5275 2.21877 16.5482
1 14.4342 1.32516 15.4298
1 15.661 3.07802 16.6789
1 16.5975 0.215447 12.6319
1 21.1887 1.32918 11.2786
1 8.37123 0.302108 10.2979
1 9.01847 1.94467 6.96924
1 9.13899 1.05192 8.0856
1 8.00111 2.94845 6.97025
1 7.40573 0.440124 11.3046
1 3.13747 1.99109 13.1611
1 7.3423 -23.7827 14.4637
1 8.79249 22.0248 17.0085
1 8.63469 23.1793 16.1768
1 7.81554 20.9848 16.9672
1 6.26847 -23.8237 13.5634
1 2.79453 22.0361 10.8822
1 10.0181 15.6797 23.7989
1 6.71014 15.0331 22.0639
1 7.75187 14.9902 23.0447
1 6.81723 15.9326 20.961
1 11.1371 16.4785 23.5243
1 13.5207 20.2376 21.2912
1 13.4395 15.4535 0.303267
1 16.5488 14.5267 2.21883
1 15.4304 14.4334 1.32521
1 16.6795 15.6603 3.07811
1 12.6325 16.5967 0.215529
1 11.2792 21.1879 1.32935
1 9.87564 7.93103 -0.175689
1 7.09999 9.12482 2.07356
1 8.09358 9.11135 1.03895
1 7.00982 8.02792 2.985
1 10.655 6.76938 -0.262551
1 12.4375 2.48101 1.31856
1 14.4642 7.34209 -23.7834
1 17.009 8.79181 22.0253
1 16.1773 8.634 23.1798
1 16.9677 7.81489 20.9853
1 13.5639 6.26827 -23.8243
1 10.8826 2.79395 22.0365
1 21.367 12.4111 19.3547
1 18.7544 10.0383 20.7632
1 19.6002 11.1775 20.6027
1 18.792 8.99562 19.7916
1 22.2817 12.3448 18.2898
1 -23.3316 9.853 14.798
1 1.55782 12.0995 20.0448
1 4.59812 14.1267 21.1108
1 3.50503 13.2066 21.151
1 4.74043 14.9998 19.9942
1 0.73594 11.9228 18.9033
1 -0.432596 13.3254 14.2629
1 22.0868 12.0069 3.65858
1 18.7141 13.6548 3.08379
1 19.7851 12.7128 3.0233
1 18.8062 14.7617 3.97678
1 23.2087 12.3171 4.44602
1 -22.7395 14.6129 8.28042
1 2.02052 12.1413 4.16481
1 5.1232 10.1749 3.16628
1 4.15199 11.2213 3.24467
1 5.02839 9.06048 4.04951
1 0.883536 11.9983 4.9985
1 -1.53325 9.35045 8.45505
1 11.5323 3.57402 1.45657
1 9.81649 2.78077 4.76202
1 10.6871 2.685 3.6319
1 8.85492 3.83139 4.82112
1 11.5325 4.58405 0.462628
1 9.91752 9.05642 -1.01511
1 12.0076 3.65855 22.0862
1 13.6556 3.08374 18.7135
1 12.7135 3.02326 19.7845
1 14.7625 3.9767 18.8056
1 12.3179 4.44597 23.2082
1 14.6137 8.28032 -22.7397
1 12.1004 20.0444 1.55748
1 14.1276 21.1103 4.59774
1 13.2075 21.1505 3.50468
1 15.0007 19.9938 4.74003
1 11.9236 18.9028 0.735599
1 13.3263 14.2625 -0.432984
1 12.4118 19.3542 21.3664
1 10.039 20.7627 18.7539
1 11.1782 20.6021 19.5996
1 8.99627 19.7912 18.7915
1 12.3455 18.2893 22.2811
1 9.85363 14.7976 -23.3318
1 3.65915 22.0858 12.0072
1 3.08428 18.7131 13.6552
1 3.02382 19.7842 12.7131
1 3.97727 18.8052 14.7621
1 4.4466 23.2078 12.3174
1 8.28056 -22.7391 14.6132
1 4.16612 2.07847 12.1775
1 2.83193 4.79236 9.86438
1 2.91432 3.84444 10.9315
1 3.88742 4.86905 8.90965
1 5.30252 1.24183 12.3083
1 9.43818 -0.61037 10.253
1 19.3552 21.366 12.4113
1 20.7637 18.7535 10.0385
1 20.6032 19.5993 11.1777
1 19.7921 18.7911 8.99578
1 18.2903 22.2807 12.345
1 14.798 -23.3311 9.85326
1 20.0451 1.55733 12.0998
1 21.1111 4.59757 14.1271
1 21.1513 3.5045 13.2069
1 19.9946 4.73987 15.0002
1 18.9036 0.735475 11.9231
1 14.2632 -0.433023 13.3257
1 11.5744 2.16266 19.6891
1 13.9778 4.73705 21.0277
1 12.8953 3.79755 20.966
1 14.8868 4.84465 19.9309
1 11.4453 1.44858 18.4891
1 13.139 -0.393508 14.1765
1 12.2515 21.5469 19.5421
1 10.1577 18.6109 20.6355
1 11.2604 19.5225 20.5248
1 9.04473 18.7343 19.7481
1 12.06 22.64 18.6849
1 9.36098 -22.8364 15.4504
1 11.6238 1.60793 3.54462
1 9.7409 4.74178 2.70577
1 10.6576 3.65722 2.58865
1 8.82769 4.81924 3.79549
1 11.6603 0.734955 4.64077
1 10.357 -0.81219 9.20238
1 12.3793 22.3006 3.31426
1 13.9335 18.9274 2.78935
1 13.074 20.0488 2.60871
1 14.9235 18.9173 3.81195
1 12.5214 23.3229 4.26385
1 14.0682 -23.1404 8.70921
1 19.6897 11.5737 2.16268
1 21.0283 13.9771 4.73712
1 20.9666 12.8946 3.7976
1 19.9315 14.886 4.84473
1 18.4897 11.4446 1.44858
1 14.1771 13.1382 -0.393488
1 19.5426 12.2508 21.5474
1 20.636 10.1571 18.6114
1 20.5254 11.2597 19.523
1 19.7486 9.04409 18.7348
1 18.6854 12.0592 22.6405
1 15.4509 9.36072 -22.837
1 4.2763 12.3723 2.40528
1 2.95173 10.0011 4.99205
1 3.03836 11.1332 4.13147
1 3.95736 8.99312 4.98595
1 5.36979 12.3778 1.5281
1 9.14627 10.2332 -0.920267
1 3.3146 12.3785 22.301
1 2.78973 13.9326 18.9279
1 2.60907 13.0731 20.0493
1 3.81235 14.9226 18.9177
1 4.26419 12.5206 23.3234
1 8.70957 14.0677 -23.141
1 2.1632 19.6888 11.5741
1 4.73766 21.0273 13.9774
1 3.79814 20.9656 12.8949
1 4.84524 19.9305 14.8863
1 1.44908 18.4887 11.4449
1 -0.393078 14.1762 13.1387
1 21.5479 19.5417 12.251
1 18.6119 20.6351 10.1573
1 19.5235 20.5244 11.2599
1 18.7353 19.7477 9.04426
1 22.641 18.6845 12.0594
1 -22.8368 15.45 9.36084
1 1.85045 3.74889 11.8822
1 5.06067 3.04001 10.0784
1 4.04432 2.98599 11.0753
1 4.97999 3.95905 8.99401
1 0.750847 4.58944 11.6603
1 -1.66147 8.33808 9.42826
1 22.3014 3.31407 12.3788
1 18.9282 2.78922 13.9329
1 20.0496 2.60856 13.0734
1 18.9181 3.81182 14.9229
1 23.3237 4.26364 12.5209
1 -23.1409 8.70895 14.0682
1 13.2631 0.51016 15.2648
1 16.6806 2.06287 14.6692
1 15.5231 1.24182 14.5161
1 16.7208 3.01874 15.7269
1 12.2815 0.646825 16.2621
1 10.733 2.10922 20.8127
1 9.60388 -23.9798 16.2413
1 6.61759 22.1663 15.1537
1 7.52825 23.2652 15.2766
1 6.75289 21.0383 16.0174
1 10.7071 24.0145 17.0778
1 13.3599 21.2892 20.3657
1 14.1188 -24.0386 7.62157
1 16.7322 21.7954 9.00092
1 15.7969 22.8773 8.92011
1 16.8223 20.8597 7.92749
1 13.3802 -23.9612 6.43161
1 11.4938 22.2537 2.22643
1 10.1696 0.0514682 8.0912
1 7.14864 2.10817 9.13166
1 8.222 1.16732 9.16885
1 7.04911 3.00901 8.03049
1 10.9627 -0.0114843 6.93253
1 12.4148 1.56237 2.38655
1 -0.549964 7.45786 9.50217
1 1.74962 8.78701 6.78307
1 0.630328 8.6434 7.65787
1 2.80321 7.82677 6.8357
1 -0.4604 6.42053 10.4463
1 2.03313 2.83538 12.9315
1 -24.0391 7.62133 14.1188
1 21.7963 9.00071 16.7317
1 22.8782 8.91989 15.7964
1 20.8605 7.92731 16.8218
1 -23.9617 6.43138 13.3802
1 22.2545 2.22624 11.4933
1 -23.9802 16.241 9.60377
1 22.1673 15.1534 6.61704
1 23.2662 15.2763 7.52768
1 21.0392 16.017 6.75236
1 24.0156 17.0775 10.7065
1 21.2903 20.3653 13.3593
1 0.510618 15.2645 13.2627
1 2.06337 14.6688 16.6803
1 1.2423 14.5158 15.5228
1 3.01926 15.7266 16.7204
1 0.647292 16.2617 12.2812
1 2.10977 20.8123 10.7326
1 7.62193 14.1184 -24.0392
1 9.00134 16.7312 21.7959
1 8.92051 15.796 22.8778
1 7.92792 16.8214 20.8601
1 6.43196 13.3798 -23.9618
1 2.22674 11.493 22.2541
1 8.21053 10.2314 0.1475
1 8.87797 6.8919 1.83457
1 8.94148 7.97501 0.906481
1 7.92511 6.93766 2.89492
1 7.32985 11.2991 0.392634
1 3.27265 13.345 2.52949
1 15.2654 13.2623 0.510188
1 14.6697 16.6799 2.06296
1 14.5167 15.5224 1.24189
1 15.7275 16.72 3.01884
1 16.2627 12.2808 0.646838
1 20.8133 10.7323 2.10922
1 16.2418 9.60364 -23.9804
1 15.1542 6.61694 22.1667
1 15.2771 7.52757 23.2656
1 16.0178 6.75225 21.0387
1 17.0784 10.7064 24.0151
1 20.3662 13.3591 21.2898
1 22.1582 5.56694 14.1797
1 19.9503 5.81147 15.938
1 18.8846 5.87861 16.881
1 2.25762 17.5567 13.5159
1 3.99369 17.7712 15.7433
1 4.92927 17.8373 16.8164
1 1.71354 5.67127 9.73319
1 3.84946 5.85192 7.8782
1 4.89896 5.89962 6.91376
1 21.8855 17.8785 9.91632
1 19.8889 17.8743 7.90779
1 18.8782 17.8661 6.9031
1 14.1803 22.1574 5.56714
1 15.9386 19.9495 5.81164
1 16.8815 18.8838 5.87875
1 13.5163 2.2571 17.5571
1 15.7437 3.99313 17.7716
1 16.8168 4.92869 17.8377
1 9.89527 1.8517 5.84403
1 7.93061 3.89481 5.90432
1 6.9318 4.91284 5.9173
1 9.91686 21.8844 17.8788
1 7.90829 19.888 17.8747
1 6.90358 18.8772 17.8665
1 5.56751 14.1794 22.1579
1 5.81205 15.9376 19.9499
1 5.87919 16.8806 18.8842
1 17.5577 13.5156 2.25715
1 17.7722 15.7429 3.99322
1 17.8382 16.816 4.9288
1 6.18227 10.2127 2.20863
1 5.99636 8.01583 3.98987
1 5.94327 6.95348 4.93956
1 17.8794 9.91617 21.8849
1 17.8752 7.90765 19.8884
1 17.867 6.90296 18.8777
1 14.1663 5.58376 22.1644
1 15.9224 5.82634 19.9572
1 16.8682 5.88633 18.892
1 10.1348 17.587 21.6332
1 7.96682 17.8018 19.8243
1 6.91894 17.8544 18.8586
1 9.75358 5.76741 1.72539
1 7.89203 5.89244 3.86381
1 6.92256 5.91864 4.90755
1 13.7907 17.8 1.94044
1 15.8331 17.8257 3.9112
1 16.8511 17.8422 4.90736
1 22.1649 14.1655 5.58384
1 19.9578 15.9216 5.82644
1 18.8926 16.8673 5.88645
1 21.6337 10.1341 17.5874
1 19.8247 7.9662 17.8023
1 18.859 6.91833 17.8548
1 1.83956 9.87816 5.86438
1 3.88833 7.91472 5.91509
1 4.91088 6.92242 5.9219
1 1.94082 13.7899 17.8005
1 3.91162 15.8322 17.8261
1 4.9078 16.8502 17.8427
1 5.5844 22.164 14.1658
1 5.82695 19.9568 15.9219
1 5.88693 18.8916 16.8677
1 17.5879 21.6328 10.1344
1 17.8028 19.8239 7.96637
1 17.8553 18.8582 6.91848
1 6.16445 2.15281 10.167
1 5.99123 3.96401 7.98971
1 5.94006 4.92618 6.94041
1 17.8008 1.94033 13.7902
1 17.8265 3.91108 15.8326
1 17.8431 4.90723 16.8506
1 22.5061 11.2581 17.4343
1 0.958163 12.7581 17.7871
1 0.804658 10.8567 5.82417
1 23.311 13.3257 5.41329
1 17.4348 22.5051 11.2584
1 17.7874 0.957695 12.7583
1 6.27828 1.28309 11.2897
1 5.41387 23.31 13.326
1 11.2588 17.4338 22.5056
1 12.7589 17.7866 0.957801
1 10.6626 5.68212 0.631583
1 13.3265 5.41322 23.3105
1 12.357 1.42865 17.4229
1 10.9389 22.8873 17.8786
1 10.8779 0.812093 5.80217
1 13.3375 23.3031 5.40527
1 17.4235 12.3563 1.42867
1 17.8792 10.9382 22.8878
1 6.30852 11.3509 1.35052
1 5.40562 13.3366 23.3036
1 1.42915 17.4226 12.3567
1 22.8883 17.8783 10.9383
1 0.617492 5.54777 10.645
1 23.304 5.40505 13.3369
1 22.0568 14.632 20.0864
1 0.330156 10.3592 21.2348
1 1.19285 14.2922 3.36493
1 23.0803 10.0249 2.64465
1 20.0869 22.0559 14.6322
1 21.235 0.329692 10.3594
1 3.2216 1.15393 14.2279
1 2.64524 23.0793 10.0252
1 14.6327 20.0858 22.0563
1 10.36 21.2343 0.329856
1 13.2605 2.3503 0.245428
1 10.0256 2.64465 23.0797
1 -0.238671 10.9712 18.8859
1 -0.102412 12.9382 5.00189
1 12.3627 4.50355 -0.614398
1 10.972 18.8855 -0.238993
1 5.43656 0.40836 13.3774
1 18.8862 -0.239113 10.9714
1 12.0347 -1.16024 13.9824
1 11.3347 -1.7542 9.24247
1 13.983 12.0339 -1.16025
1 9.28034 11.2793 -1.77628
1 -1.15984 13.9821 12.0344
1 -2.74776 8.21721 10.2347
