LAMMPS data file. CGCMM style. atom_style atomic generated by VMD/TopoTools v1.6 on Tue May 03 11:32:44 EDT 2016
 48 atoms
 0 bonds
 0 angles
 0 dihedrals
 0 impropers
 1 atom types
 0 bond types
 0 angle types
 0 dihedral types
 0 improper types
 0.012000 7.792000  xlo xhi
 0.000017 7.779983  ylo yhi
 0.000000 7.780000  zlo zhi
 0.023083 0.000000 0.000000 xy xz yz

# Pair Coeffs
#
# 1  C

 Masses

 1 12.010700 # C

 Atoms

1 1 2.424000 2.417000 0.675000 # C
2 1 6.326000 6.307000 4.565000 # C
3 1 5.379000 5.363000 0.675000 # C
4 1 1.477000 1.473000 4.565000 # C
5 1 5.366000 2.421000 7.105000 # C
6 1 1.488000 6.311000 3.215000 # C
7 1 2.437000 5.359000 7.105000 # C
8 1 6.316000 1.469000 3.215000 # C
9 1 0.682000 2.421000 2.419000 # C
10 1 4.584000 6.311000 6.309000 # C
11 1 0.692000 5.363000 5.361000 # C
12 1 4.570000 1.473000 1.471000 # C
13 1 7.122000 5.359000 2.419000 # C
14 1 3.220000 1.469000 6.309000 # C
15 1 7.111000 2.417000 5.361000 # C
16 1 3.233000 6.307000 1.471000 # C
17 1 2.423000 0.675000 2.419000 # C
18 1 6.325000 4.565000 6.309000 # C
19 1 5.365000 0.676000 5.361000 # C
20 1 1.486000 4.566000 1.471000 # C
21 1 2.439000 7.104000 5.361000 # C
22 1 6.317000 3.214000 1.471000 # C
23 1 5.381000 7.105000 2.419000 # C
24 1 1.479000 3.215000 6.309000 # C
25 1 2.424000 2.417000 7.105000 # C
26 1 6.326000 6.307000 3.215000 # C
27 1 5.379000 5.363000 7.105000 # C
28 1 1.477000 1.473000 3.215000 # C
29 1 2.437000 5.359000 0.675000 # C
30 1 6.316000 1.469000 4.566000 # C
31 1 5.366000 2.421000 0.675000 # C
32 1 1.488000 6.311000 4.566000 # C
33 1 2.423000 0.675000 5.361000 # C
34 1 6.325000 4.565000 1.471000 # C
35 1 5.365000 0.676000 2.419000 # C
36 1 1.486000 4.566000 6.309000 # C
37 1 5.381000 7.105000 5.361000 # C
38 1 1.479000 3.215000 1.471000 # C
39 1 2.439000 7.104000 2.419000 # C
40 1 6.317000 3.214000 6.309000 # C
41 1 0.682000 2.421000 5.361000 # C
42 1 4.584000 6.311000 1.471000 # C
43 1 0.692000 5.363000 2.419000 # C
44 1 4.570000 1.473000 6.309000 # C
45 1 7.111000 2.417000 2.419000 # C
46 1 3.233000 6.307000 6.309000 # C
47 1 7.122000 5.359000 5.361000 # C
48 1 3.220000 1.469000 1.471000 # C

