LAMMPS data file. CGCMM style. atom_style atomic generated by VMD/TopoTools v1.7 on Thu Dec 14 15:26:52 EST 2017
 96 atoms
 0 bonds
 0 angles
 0 dihedrals
 0 impropers
 1 atom types
 0 bond types
 0 angle types
 0 dihedral types
 0 improper types
 0.000000 11.500000  xlo xhi
 0.000000 11.500000  ylo yhi
 0.000000 11.500000  zlo zhi

# Pair Coeffs
#
# 1  C

 Masses

 1 12.010700 # C

 Atoms # atomic

1 1 11.084410 10.063372 6.193229 # C
2 1 0.641024 1.662062 6.193229 # C
3 1 0.641024 10.063372 5.532205 # C
4 1 11.084410 1.662062 5.532205 # C
5 1 6.193229 11.084410 10.063372 # C
6 1 6.193229 0.641024 1.662062 # C
7 1 5.532205 0.641024 10.063372 # C
8 1 5.532205 11.084410 1.662062 # C
9 1 10.063372 6.193229 11.084410 # C
10 1 1.662062 6.193229 0.641024 # C
11 1 10.063372 5.532205 0.641024 # C
12 1 1.662062 5.532205 11.084410 # C
13 1 4.201156 5.221193 11.394422 # C
14 1 7.524278 6.503240 11.394422 # C
15 1 4.201156 6.503240 0.330012 # C
16 1 7.524278 5.221193 0.330012 # C
17 1 5.221193 0.330012 7.524278 # C
18 1 6.503240 0.330012 4.201156 # C
19 1 6.503240 11.394422 7.524278 # C
20 1 5.221193 11.394422 4.201156 # C
21 1 0.330012 4.201156 6.503240 # C
22 1 0.330012 7.524278 5.221193 # C
23 1 11.394422 4.201156 5.221193 # C
24 1 11.394422 7.524278 6.503240 # C
25 1 6.503240 7.524278 11.394422 # C
26 1 5.221193 4.201156 11.394422 # C
27 1 5.221193 7.524278 0.330012 # C
28 1 6.503240 4.201156 0.330012 # C
29 1 11.394422 6.503240 7.524278 # C
30 1 11.394422 5.221193 4.201156 # C
31 1 0.330012 5.221193 7.524278 # C
32 1 0.330012 6.503240 4.201156 # C
33 1 7.524278 11.394422 6.503240 # C
34 1 4.201156 11.394422 5.221193 # C
35 1 7.524278 0.330012 5.221193 # C
36 1 4.201156 0.330012 6.503240 # C
37 1 1.662062 0.641024 6.193229 # C
38 1 10.063372 11.084410 6.193229 # C
39 1 1.662062 11.084410 5.532205 # C
40 1 10.063372 0.641024 5.532205 # C
41 1 0.641024 5.532205 10.063372 # C
42 1 11.084410 5.532205 1.662062 # C
43 1 11.084410 6.193229 10.063372 # C
44 1 0.641024 6.193229 1.662062 # C
45 1 5.532205 1.662062 11.084410 # C
46 1 5.532205 10.063372 0.641024 # C
47 1 6.193229 1.662062 0.641024 # C
48 1 6.193229 10.063372 11.084410 # C
49 1 9.778361 8.793325 7.809289 # C
50 1 10.771399 8.793325 6.816252 # C
51 1 1.946072 2.931108 7.809289 # C
52 1 0.954035 2.931108 6.816252 # C
53 1 1.946072 8.793325 3.916145 # C
54 1 0.954035 8.793325 4.908182 # C
55 1 9.778361 2.931108 3.916145 # C
56 1 10.771399 2.931108 4.908182 # C
57 1 7.809289 9.778361 8.793325 # C
58 1 6.816252 10.771399 8.793325 # C
59 1 7.809289 1.946072 2.931108 # C
60 1 6.816252 0.954035 2.931108 # C
61 1 3.916145 1.946072 8.793325 # C
62 1 4.908182 0.954035 8.793325 # C
63 1 3.916145 9.778361 2.931108 # C
64 1 4.908182 10.771399 2.931108 # C
65 1 8.793325 7.809289 9.778361 # C
66 1 8.793325 6.816252 10.771399 # C
67 1 2.931108 7.809289 1.946072 # C
68 1 2.931108 6.816252 0.954035 # C
69 1 8.793325 3.916145 1.946072 # C
70 1 8.793325 4.908182 0.954035 # C
71 1 2.931108 3.916145 9.778361 # C
72 1 2.931108 4.908182 10.771399 # C
73 1 7.809289 8.793325 9.778361 # C
74 1 6.816252 8.793325 10.771399 # C
75 1 3.916145 2.931108 9.778361 # C
76 1 4.908182 2.931108 10.771399 # C
77 1 3.916145 8.793325 1.946072 # C
78 1 4.908182 8.793325 0.954035 # C
79 1 7.809289 2.931108 1.946072 # C
80 1 6.816252 2.931108 0.954035 # C
81 1 9.778361 7.809289 8.793325 # C
82 1 10.771399 6.816252 8.793325 # C
83 1 9.778361 3.916145 2.931108 # C
84 1 10.771399 4.908182 2.931108 # C
85 1 1.946072 3.916145 8.793325 # C
86 1 0.954035 4.908182 8.793325 # C
87 1 1.946072 7.809289 2.931108 # C
88 1 0.954035 6.816252 2.931108 # C
89 1 8.793325 9.778361 7.809289 # C
90 1 8.793325 10.771399 6.816252 # C
91 1 2.931108 9.778361 3.916145 # C
92 1 2.931108 10.771399 4.908182 # C
93 1 8.793325 1.946072 3.916145 # C
94 1 8.793325 0.954035 4.908182 # C
95 1 2.931108 1.946072 7.809289 # C
96 1 2.931108 0.954035 6.816252 # C

