96
Atoms. Timestep: 1062
C 11.0861 10.0653 6.19512
C 0.643333 1.66402 6.19512
C 0.643435 10.0653 5.53423
C 11.086 1.66403 5.53423
C 6.19522 11.086 10.0653
C 6.19512 0.643321 1.66402
C 5.53423 0.643324 10.0653
C 5.53433 11.086 1.66402
C 10.0654 6.1951 11.086
C 1.66408 6.19512 0.64332
C 10.0654 5.53421 0.64332
C 1.66408 5.53422 11.086
C 4.20308 5.22373 11.3965
C 7.52636 6.50559 11.3965
C 4.20309 6.50561 0.332818
C 7.52636 5.22371 0.332818
C 5.22373 0.332829 7.5263
C 6.50561 0.332831 4.20302
C 6.50572 11.3965 7.5263
C 5.22384 11.3965 4.20302
C 0.332867 4.20302 6.5056
C 0.332917 7.5263 5.22373
C 11.3965 4.20303 5.22373
C 11.3966 7.5263 6.5056
C 6.50567 7.5263 11.3965
C 5.22378 4.20303 11.3965
C 5.22379 7.5263 0.332818
C 6.50566 4.20302 0.332818
C 11.3966 6.5056 7.5263
C 11.3965 5.22372 4.20302
C 0.332885 5.22372 7.5263
C 0.332899 6.5056 4.20302
C 7.52642 11.3965 6.5056
C 4.20314 11.3965 5.22373
C 7.5263 0.332839 5.22373
C 4.20303 0.332822 6.5056
C 1.66403 0.643313 6.19512
C 10.0654 11.086 6.19512
C 1.66414 11.086 5.53423
C 10.0653 0.643332 5.53423
C 0.643383 5.53422 10.0653
C 11.0861 5.53421 1.66402
C 11.0861 6.19511 10.0653
C 0.643386 6.19511 1.66402
C 5.53424 1.66402 11.086
C 5.53431 10.0653 0.64332
C 6.19514 1.66402 0.64332
C 6.1952 10.0653 11.086
C 9.78071 8.79581 7.811
C 10.7731 8.79581 6.81862
C 1.94874 2.93352 7.811
C 0.956351 2.93352 6.81862
C 1.94882 8.79579 3.91833
C 0.956433 8.7958 4.91072
C 9.78063 2.93353 3.91833
C 10.773 2.93353 4.91072
C 7.8111 9.7806 8.7958
C 6.81872 10.773 8.7958
C 7.81102 1.94872 2.93352
C 6.81862 0.95633 2.93352
C 3.91834 1.94872 8.7958
C 4.91073 0.956331 8.7958
C 3.91843 9.78061 2.93352
C 4.91083 10.773 2.93352
C 8.79588 7.81099 9.7806
C 8.79587 6.8186 10.773
C 2.9336 7.81101 1.94871
C 2.93359 6.81862 0.956322
C 8.79585 3.91831 1.94871
C 8.79586 4.9107 0.956322
C 2.93357 3.91834 9.7806
C 2.93358 4.91073 10.773
C 7.81108 8.79579 9.7806
C 6.81869 8.7958 10.773
C 3.91837 2.93353 9.7806
C 4.91076 2.93353 10.773
C 3.91841 8.79581 1.94871
C 4.9108 8.79581 0.956322
C 7.81104 2.93352 1.94871
C 6.81865 2.93352 0.956322
C 9.78068 7.811 8.7958
C 10.7731 6.81861 8.7958
C 9.78065 3.91833 2.93352
C 10.773 4.91072 2.93352
C 1.94877 3.91832 8.7958
C 0.956383 4.91072 8.7958
C 1.9488 7.811 2.93352
C 0.956401 6.81861 2.93352
C 8.79591 9.78061 7.811
C 8.79592 10.773 6.81862
C 2.93363 9.78059 3.91833
C 2.93364 10.773 4.91072
C 8.79582 1.94873 3.91833
C 8.79581 0.956342 4.91072
C 2.93354 1.94871 7.811
C 2.93353 0.956319 6.81862
