LAMMPS data file. CGCMM style. atom_style atomic generated by VMD/TopoTools v1.6 on Tue May 03 11:27:50 EDT 2016
 24 atoms
 0 bonds
 0 angles
 0 dihedrals
 0 impropers
 1 atom types
 0 bond types
 0 angle types
 0 dihedral types
 0 improper types
 -0.494000 5.549000  xlo xhi
 -0.494000 5.549000  ylo yhi
 -0.494000 5.549000  zlo zhi

# Pair Coeffs
#
# 1  C

 Masses

 1 12.010700 # C

 Atoms

1 1 3.021000 2.034000 4.009000 # C
2 1 0.000000 0.988000 4.009000 # C
3 1 0.000000 2.034000 5.055000 # C
4 1 3.021000 0.988000 5.055000 # C
5 1 4.009000 3.021000 2.034000 # C
6 1 4.009000 0.000000 0.988000 # C
7 1 5.055000 0.000000 2.034000 # C
8 1 5.055000 3.021000 0.988000 # C
9 1 2.034000 4.009000 3.021000 # C
10 1 0.988000 4.009000 0.000000 # C
11 1 2.034000 5.055000 0.000000 # C
12 1 0.988000 5.055000 3.021000 # C
13 1 3.021000 4.009000 2.034000 # C
14 1 -0.000000 5.055000 2.034000 # C
15 1 -0.000000 4.009000 0.988000 # C
16 1 3.021000 5.055000 0.988000 # C
17 1 2.034000 3.021000 4.009000 # C
18 1 2.034000 -0.000000 5.055000 # C
19 1 0.988000 -0.000000 4.009000 # C
20 1 0.988000 3.021000 5.055000 # C
21 1 4.009000 2.034000 3.021000 # C
22 1 5.055000 2.034000 -0.000000 # C
23 1 4.009000 0.988000 -0.000000 # C
24 1 5.055000 0.988000 3.021000 # C

