24
Atoms. Timestep: 152
1 3.02312 2.01872 4.02746
1 -0.00863339 0.995722 4.02746
1 -0.00862833 2.01873 5.05047
1 3.02311 0.995709 5.05047
1 4.0275 3.02309 2.01873
1 4.02746 -0.00864933 0.995719
1 5.05047 -0.0086545 2.01873
1 5.05051 3.02309 0.995719
1 2.01877 4.02746 3.02309
1 0.995763 4.02746 -0.00865086
1 2.01878 5.05047 -0.00865086
1 0.99577 5.05047 3.02309
1 3.02314 4.02747 2.01873
1 -0.00859801 5.05046 2.01873
1 -0.00860307 4.02745 0.995719
1 3.02315 5.05047 0.995719
1 2.01875 3.02309 4.02746
1 2.01874 -0.0086545 5.05047
1 0.995728 -0.00864933 4.02746
1 0.995745 3.02309 5.05047
1 4.02748 2.01873 3.02309
1 5.05049 2.01872 -0.00865086
1 4.02748 0.995717 -0.00865086
1 5.05049 0.995714 3.02309
