LAMMPS data file. CGCMM style. atom_style atomic generated by VMD/TopoTools v1.6 on Tue May 03 11:34:18 EDT 2016
 48 atoms
 0 bonds
 0 angles
 0 dihedrals
 0 impropers
 1 atom types
 0 bond types
 0 angle types
 0 dihedral types
 0 improper types
 -0.000000 7.800000  xlo xhi
 -0.000000 7.800000  ylo yhi
 -0.000000 7.800000  zlo zhi

# Pair Coeffs
#
# 1  C

 Masses

 1 12.010700 # C

 Atoms

1 1 2.442000 2.442000 0.708000 # C
2 1 6.343000 6.343000 4.609000 # C
3 1 5.358000 5.358000 0.708000 # C
4 1 1.458000 1.458000 4.609000 # C
5 1 5.358000 2.442000 7.092000 # C
6 1 1.458000 6.343000 3.192000 # C
7 1 2.442000 5.358000 7.092000 # C
8 1 6.343000 1.458000 3.192000 # C
9 1 0.708000 2.442000 2.442000 # C
10 1 4.609000 6.343000 6.343000 # C
11 1 0.708000 5.358000 5.358000 # C
12 1 4.609000 1.458000 1.458000 # C
13 1 7.092000 5.358000 2.442000 # C
14 1 3.192000 1.458000 6.343000 # C
15 1 7.092000 2.442000 5.358000 # C
16 1 3.192000 6.343000 1.458000 # C
17 1 2.442000 0.708000 2.442000 # C
18 1 6.343000 4.609000 6.343000 # C
19 1 5.358000 0.708000 5.358000 # C
20 1 1.458000 4.609000 1.458000 # C
21 1 2.442000 7.092000 5.358000 # C
22 1 6.343000 3.192000 1.458000 # C
23 1 5.358000 7.092000 2.442000 # C
24 1 1.458000 3.192000 6.343000 # C
25 1 2.442000 2.442000 7.092000 # C
26 1 6.343000 6.343000 3.192000 # C
27 1 5.358000 5.358000 7.092000 # C
28 1 1.458000 1.458000 3.192000 # C
29 1 2.442000 5.358000 0.708000 # C
30 1 6.343000 1.458000 4.609000 # C
31 1 5.358000 2.442000 0.708000 # C
32 1 1.458000 6.343000 4.609000 # C
33 1 2.442000 0.708000 5.358000 # C
34 1 6.343000 4.609000 1.458000 # C
35 1 5.358000 0.708000 2.442000 # C
36 1 1.458000 4.609000 6.343000 # C
37 1 5.358000 7.092000 5.358000 # C
38 1 1.458000 3.192000 1.458000 # C
39 1 2.442000 7.092000 2.442000 # C
40 1 6.343000 3.192000 6.343000 # C
41 1 0.708000 2.442000 5.358000 # C
42 1 4.609000 6.343000 1.458000 # C
43 1 0.708000 5.358000 2.442000 # C
44 1 4.609000 1.458000 6.343000 # C
45 1 7.092000 2.442000 2.442000 # C
46 1 3.192000 6.343000 6.343000 # C
47 1 7.092000 5.358000 5.358000 # C
48 1 3.192000 1.458000 1.458000 # C

