48
Atoms. Timestep: 209
1 2.4424 2.44238 0.708261
1 6.34274 6.34267 4.60855
1 5.35817 5.35812 0.708261
1 1.45784 1.45783 4.60855
1 5.35814 2.44239 7.09224
1 1.45788 6.34268 3.19195
1 2.44244 5.35811 7.09224
1 6.34269 1.45782 3.19195
1 0.708283 2.44239 2.44238
1 4.60861 6.34268 6.34268
1 0.708317 5.35812 5.35812
1 4.60857 1.45783 1.45782
1 7.0923 5.35811 2.44238
1 3.19196 1.45782 6.34268
1 7.09226 2.44238 5.35812
1 3.19201 6.34267 1.45782
1 2.4424 0.708259 2.44238
1 6.34273 4.60855 6.34268
1 5.35813 0.708264 5.35812
1 1.45788 4.60856 1.45782
1 2.44245 7.09224 5.35812
1 6.3427 3.19195 1.45782
1 5.35818 7.09224 2.44238
1 1.45785 3.19195 6.34268
1 2.4424 2.44238 7.09224
1 6.34274 6.34267 3.19195
1 5.35817 5.35812 7.09224
1 1.45784 1.45783 3.19195
1 2.44244 5.35811 0.708262
1 6.34269 1.45782 4.60855
1 5.35814 2.44239 0.708262
1 1.45788 6.34268 4.60855
1 2.4424 0.708259 5.35812
1 6.34273 4.60855 1.45782
1 5.35813 0.708264 2.44239
1 1.45788 4.60856 6.34268
1 5.35818 7.09224 5.35812
1 1.45785 3.19195 1.45782
1 2.44245 7.09224 2.44239
1 6.3427 3.19195 6.34268
1 0.708283 2.44239 5.35812
1 4.60861 6.34268 1.45782
1 0.708317 5.35812 2.44239
1 4.60857 1.45783 6.34268
1 7.09226 2.44238 2.44239
1 3.19201 6.34267 6.34268
1 7.0923 5.35811 5.35812
1 3.19196 1.45782 1.45782
