LAMMPS data file. CGCMM style. atom_style atomic generated by VMD/TopoTools v1.6 on Tue May 03 11:29:29 EDT 2016
 96 atoms
 0 bonds
 0 angles
 0 dihedrals
 0 impropers
 1 atom types
 0 bond types
 0 angle types
 0 dihedral types
 0 improper types
 -0.009500 9.591500  xlo xhi
 0.053000 9.654000  ylo yhi
 0.087500 9.688500  zlo zhi

# Pair Coeffs
#
# 1  C

 Masses

 1 12.010700 # C

 Atoms

1 1 8.852000 1.152000 9.169000 # C
2 12 4.052000 5.953000 4.368000 # C
3 23 5.531000 8.555000 4.368000 # C
4 34 0.730000 3.754000 9.169000 # C
5 45 0.730000 5.953000 5.408000 # C
6 56 5.531000 1.152000 0.607000 # C
7 67 4.052000 3.754000 0.607000 # C
8 78 8.852000 8.555000 5.408000 # C
9 89 9.072000 8.914000 1.187000 # C
10 2 4.272000 4.114000 5.987000 # C
11 3 4.272000 5.593000 8.589000 # C
12 4 9.072000 0.793000 3.789000 # C
13 5 5.311000 0.793000 5.987000 # C
14 6 0.510000 5.593000 1.187000 # C
15 7 0.510000 4.114000 3.789000 # C
16 8 5.311000 8.914000 8.589000 # C
17 9 1.090000 9.134000 8.949000 # C
18 10 5.890000 4.334000 4.148000 # C
19 11 8.493000 4.334000 5.628000 # C
20 13 3.692000 9.134000 0.827000 # C
21 14 5.890000 5.373000 0.827000 # C
22 15 1.090000 0.573000 5.628000 # C
23 16 3.692000 0.573000 4.148000 # C
24 17 8.493000 5.373000 8.949000 # C
25 18 8.291000 1.714000 3.007000 # C
26 19 3.490000 6.514000 7.808000 # C
27 20 6.092000 7.993000 7.808000 # C
28 21 1.292000 3.193000 3.007000 # C
29 22 3.490000 3.193000 6.769000 # C
30 24 8.291000 7.993000 1.968000 # C
31 25 1.292000 6.514000 1.968000 # C
32 26 6.092000 1.714000 6.769000 # C
33 27 6.452000 1.934000 1.389000 # C
34 28 1.651000 6.734000 6.189000 # C
35 29 3.131000 6.734000 3.587000 # C
36 30 7.931000 1.934000 8.387000 # C
37 31 7.931000 7.773000 6.189000 # C
38 32 3.131000 2.973000 1.389000 # C
39 33 1.651000 2.973000 8.387000 # C
40 35 6.452000 7.773000 3.587000 # C
41 36 6.672000 3.552000 3.227000 # C
42 37 1.871000 8.353000 8.028000 # C
43 38 1.871000 1.354000 6.549000 # C
44 39 6.672000 6.155000 1.748000 # C
45 40 2.911000 8.353000 1.748000 # C
46 41 7.711000 3.552000 6.549000 # C
47 42 7.711000 6.155000 8.028000 # C
48 43 2.911000 1.354000 3.227000 # C
49 44 0.730000 8.555000 0.607000 # C
50 46 5.531000 3.754000 5.408000 # C
51 47 4.052000 1.152000 5.408000 # C
52 48 8.852000 5.953000 0.607000 # C
53 49 8.852000 3.754000 4.368000 # C
54 50 4.052000 8.555000 9.169000 # C
55 51 5.531000 5.953000 9.169000 # C
56 52 0.730000 1.152000 4.368000 # C
57 53 0.510000 0.793000 8.589000 # C
58 54 5.311000 5.593000 3.789000 # C
59 55 5.311000 4.114000 1.187000 # C
60 57 0.510000 8.914000 5.987000 # C
61 58 4.272000 8.914000 3.789000 # C
62 59 9.072000 4.114000 8.589000 # C
63 60 9.072000 5.593000 5.987000 # C
64 61 4.272000 0.793000 1.187000 # C
65 62 8.493000 0.573000 0.827000 # C
66 63 3.692000 5.373000 5.628000 # C
67 64 1.090000 5.373000 4.148000 # C
68 65 5.890000 0.573000 8.949000 # C
69 66 3.692000 4.334000 8.949000 # C
70 68 8.493000 9.134000 4.148000 # C
71 69 5.890000 9.134000 5.628000 # C
72 70 1.090000 4.334000 0.827000 # C
73 71 1.292000 7.993000 6.769000 # C
74 72 6.092000 3.193000 1.968000 # C
75 73 3.490000 1.714000 1.968000 # C
76 74 8.291000 6.514000 6.769000 # C
77 75 6.092000 6.514000 3.007000 # C
78 76 1.292000 1.714000 7.808000 # C
79 77 8.291000 3.193000 7.808000 # C
80 79 3.490000 7.993000 3.007000 # C
81 80 3.131000 7.773000 8.387000 # C
82 81 7.931000 2.973000 3.587000 # C
83 82 6.452000 2.973000 6.189000 # C
84 83 1.651000 7.773000 1.389000 # C
85 84 1.651000 1.934000 3.587000 # C
86 85 6.452000 6.734000 8.387000 # C
87 86 7.931000 6.734000 1.389000 # C
88 87 3.131000 1.934000 6.189000 # C
89 88 2.911000 6.155000 6.549000 # C
90 90 7.711000 1.354000 1.748000 # C
91 91 7.711000 8.353000 3.227000 # C
92 92 2.911000 3.552000 8.028000 # C
93 93 6.672000 1.354000 8.028000 # C
94 94 1.871000 6.155000 3.227000 # C
95 95 1.871000 3.552000 1.748000 # C
96 96 6.672000 8.353000 6.549000 # C

