LAMMPS data file. CGCMM style. atom_style atomic generated by VMD/TopoTools v1.6 on Wed Oct 05 14:45:04 EDT 2016
 3072 atoms
 0 bonds
 0 angles
 0 dihedrals
 0 impropers
 1 atom types
 0 bond types
 0 angle types
 0 dihedral types
 0 improper types
 -29.13059 29.13059  xlo xhi
 -29.13059 29.13059  ylo yhi
 -29.13059 29.13059  zlo zhi

# Pair Coeffs
#
# 1  C

 Masses

 1 12.010700 # C

 Atoms

1 1 10.684595 10.654110 24.096752 # C
2 1 18.344030 4.931910 18.374580 # C
3 1 5.899536 13.343435 26.557783 # C
4 1 13.352859 5.862690 26.589762 # C
5 1 12.296583 12.265528 19.230013 # C
6 1 15.675784 2.438903 23.166018 # C
7 1 23.129078 2.470873 15.685236 # C
8 1 16.732050 9.798643 16.763123 # C
9 1 12.688836 9.027906 22.886925 # C
10 1 9.081467 12.669270 22.846987 # C
11 1 10.245063 10.225409 26.575371 # C
12 1 19.947153 6.181679 16.359396 # C
13 1 16.339800 6.141740 20.000776 # C
14 1 18.783560 2.453287 18.803303 # C
15 1 3.072689 14.185730 27.787186 # C
16 1 8.045416 11.889339 27.801786 # C
17 1 6.540892 13.765726 24.071508 # C
18 1 11.904149 8.020013 27.810432 # C
19 1 14.188663 3.043604 27.809698 # C
20 1 13.773606 6.480767 24.129354 # C
21 1 9.951859 13.488998 20.417410 # C
22 1 13.503135 9.898882 20.458155 # C
23 1 13.363094 13.350574 16.865261 # C
24 1 14.839982 1.218960 25.985081 # C
25 1 17.124487 1.218219 21.008711 # C
26 1 15.255035 4.899319 22.547926 # C
27 1 20.983192 1.226865 17.139362 # C
28 1 25.955933 1.241465 14.842922 # C
29 1 22.487722 4.957160 15.262931 # C
30 1 15.525504 8.570501 19.129778 # C
31 1 19.076761 8.611257 15.539652 # C
32 1 15.665542 12.163388 15.678070 # C
33 1 9.590794 11.412217 24.708643 # C
34 1 11.434091 9.557292 24.724693 # C
35 1 11.003042 10.967287 22.863243 # C
36 1 17.594540 4.303969 19.471409 # C
37 1 19.437828 4.320020 17.616472 # C
38 1 18.025585 6.165419 18.061392 # C
39 1 7.204754 12.774997 25.940159 # C
40 1 4.816915 13.958189 25.927458 # C
41 1 5.671412 13.270998 27.796568 # C
42 1 13.963802 4.768466 25.973701 # C
43 1 12.787434 7.167313 25.971828 # C
44 1 13.280010 5.642860 27.812422 # C
45 1 13.418174 11.618415 18.649172 # C
46 1 11.652897 13.402484 18.629911 # C
47 1 11.820476 11.784140 20.428934 # C
48 1 16.241205 3.056836 21.861399 # C
49 1 15.064842 3.054971 24.260231 # C
50 1 15.748635 1.216232 23.385851 # C
51 1 24.211702 3.101202 15.070467 # C
52 1 21.823860 3.088501 16.253681 # C
53 1 23.357197 1.232082 15.757678 # C
54 1 17.375731 10.398747 15.626163 # C
55 1 15.610463 10.379479 17.410234 # C
56 1 17.208155 8.599724 17.244516 # C
57 1 13.620447 8.188282 22.287483 # C
58 1 12.060556 10.215310 22.262325 # C
59 1 12.380818 8.683064 24.115782 # C
60 1 10.262050 12.032478 22.240520 # C
61 1 8.250329 13.609644 22.231998 # C
62 1 8.728657 12.362185 24.081598 # C
63 1 11.230453 9.328566 25.961712 # C
64 1 9.354900 11.212242 25.950239 # C
65 1 10.139290 10.118868 27.806278 # C
66 1 20.778288 6.796672 15.419011 # C
67 1 18.766575 6.788143 16.996189 # C
68 1 20.299961 4.947065 16.666491 # C
69 1 16.968077 6.766335 18.813366 # C
70 1 15.408193 6.741182 20.840393 # C
71 1 16.647816 4.912884 20.345633 # C
72 1 19.673719 3.078418 17.816458 # C
73 1 17.798178 3.066948 19.700146 # C
74 1 18.889332 1.222373 18.909851 # C
75 1 1.565212 14.411161 28.404730 # C
76 1 4.285231 13.782591 28.411098 # C
77 1 3.376249 14.288891 26.542328 # C
78 1 6.817716 12.626549 28.414110 # C
79 1 9.090212 11.029690 28.416319 # C
80 1 8.204330 11.965350 26.566616 # C
81 1 5.169838 14.183620 24.684603 # C
82 1 7.493188 12.971857 24.696737 # C
83 1 6.945224 14.096428 22.841379 # C
84 1 11.049259 9.065249 28.418604 # C
85 1 12.639165 6.790707 28.420471 # C
86 1 11.979569 8.176788 26.584450 # C
87 1 13.788431 4.260800 28.420593 # C
88 1 14.411799 1.547311 28.417749 # C
89 1 14.291186 3.331440 26.585470 # C
90 1 12.985045 7.444863 24.740177 # C
91 1 14.186938 5.108994 24.744946 # C
92 1 14.100990 6.879346 22.905518 # C
93 1 8.704255 14.027537 21.020111 # C
94 1 10.678516 12.434312 21.022831 # C
95 1 10.450132 13.975782 19.223413 # C
96 1 12.461523 10.630329 21.045708 # C
97 1 14.033778 8.644240 21.075333 # C
98 1 13.983678 10.405581 19.260542 # C
99 1 12.188764 13.941023 17.449142 # C
100 1 14.514319 11.580606 17.448042 # C
101 1 13.928598 13.923873 15.690494 # C
102 1 14.616845 0.610903 27.481354 # C
103 1 15.240216 0.608057 24.767899 # C
104 1 14.737459 2.443204 25.697248 # C
105 1 16.389477 0.608176 22.238012 # C
106 1 17.979368 0.610044 19.963478 # C
107 1 17.049067 2.444209 20.851929 # C
108 1 14.841705 4.283734 23.919699 # C
109 1 16.043592 4.288489 21.583839 # C
110 1 14.927652 6.123157 22.149336 # C
111 1 19.938398 0.612329 17.999025 # C
112 1 22.210888 0.614535 16.402143 # C
113 1 20.824284 2.462040 17.063343 # C
114 1 24.743378 0.617547 15.246073 # C
115 1 21.535427 4.331926 16.056814 # C
116 1 14.994863 7.953329 20.384424 # C
117 1 16.567110 7.982950 18.398335 # C
118 1 15.044962 9.768111 18.623072 # C
119 1 18.350109 8.005832 16.594345 # C
120 1 14.514319 12.175810 16.852839 # C
121 1 -10.684595 -10.654110 24.096752 # C
122 1 -10.684595 10.654110 -24.096752 # C
123 1 -10.684595 10.654110 24.096752 # C
124 1 -10.654110 -24.096752 -10.684595 # C
125 1 -10.654110 -24.096752 10.684595 # C
126 1 -10.654110 24.096752 -10.684595 # C
127 1 -10.654110 24.096752 10.684595 # C
128 1 -24.096752 -10.684595 -10.654110 # C
129 1 -24.096752 -10.684595 10.654110 # C
130 1 -24.096752 10.684595 -10.654110 # C
131 1 -24.096752 10.684595 10.654110 # C
132 1 24.096752 -10.684595 -10.654110 # C
133 1 24.096752 -10.684595 10.654110 # C
134 1 24.096752 10.684595 -10.654110 # C
135 1 24.096752 10.684595 10.654110 # C
136 1 10.654110 -24.096752 -10.684595 # C
137 1 10.654110 -24.096752 10.684595 # C
138 1 10.654110 24.096752 -10.684595 # C
139 1 10.654110 24.096752 10.684595 # C
140 1 10.684595 -10.654110 -24.096752 # C
141 1 10.684595 -10.654110 24.096752 # C
142 1 10.684595 10.654110 -24.096752 # C
143 1 -10.684595 -10.654110 -24.096752 # C
144 1 -18.344030 -4.931910 18.374580 # C
145 1 -18.344030 4.931910 -18.374580 # C
146 1 -18.344030 4.931910 18.374580 # C
147 1 -4.931910 -18.374580 -18.344030 # C
148 1 -4.931910 -18.374580 18.344030 # C
149 1 -4.931910 18.374580 -18.344030 # C
150 1 -4.931910 18.374580 18.344030 # C
151 1 -18.374580 -18.344030 -4.931910 # C
152 1 -18.374580 -18.344030 4.931910 # C
153 1 -18.374580 18.344030 -4.931910 # C
154 1 -18.374580 18.344030 4.931910 # C
155 1 18.374580 -18.344030 -4.931910 # C
156 1 18.374580 -18.344030 4.931910 # C
157 1 18.374580 18.344030 -4.931910 # C
158 1 18.374580 18.344030 4.931910 # C
159 1 4.931910 -18.374580 -18.344030 # C
160 1 4.931910 -18.374580 18.344030 # C
161 1 4.931910 18.374580 -18.344030 # C
162 1 4.931910 18.374580 18.344030 # C
163 1 18.344030 -4.931910 -18.374580 # C
164 1 18.344030 -4.931910 18.374580 # C
165 1 18.344030 4.931910 -18.374580 # C
166 1 -18.344030 -4.931910 -18.374580 # C
167 1 -5.899536 -13.343435 26.557783 # C
168 1 -5.899536 13.343435 -26.557783 # C
169 1 -5.899536 13.343435 26.557783 # C
170 1 -13.343435 -26.557783 -5.899536 # C
171 1 -13.343435 -26.557783 5.899536 # C
172 1 -13.343435 26.557783 -5.899536 # C
173 1 -13.343435 26.557783 5.899536 # C
174 1 -26.557783 -5.899536 -13.343435 # C
175 1 -26.557783 -5.899536 13.343435 # C
176 1 -26.557783 5.899536 -13.343435 # C
177 1 -26.557783 5.899536 13.343435 # C
178 1 26.557783 -5.899536 -13.343435 # C
179 1 26.557783 -5.899536 13.343435 # C
180 1 26.557783 5.899536 -13.343435 # C
181 1 26.557783 5.899536 13.343435 # C
182 1 13.343435 -26.557783 -5.899536 # C
183 1 13.343435 -26.557783 5.899536 # C
184 1 13.343435 26.557783 -5.899536 # C
185 1 13.343435 26.557783 5.899536 # C
186 1 5.899536 -13.343435 -26.557783 # C
187 1 5.899536 -13.343435 26.557783 # C
188 1 5.899536 13.343435 -26.557783 # C
189 1 -5.899536 -13.343435 -26.557783 # C
190 1 -13.352859 -5.862690 26.589762 # C
191 1 -13.352859 5.862690 -26.589762 # C
192 1 -13.352859 5.862690 26.589762 # C
193 1 -5.862690 -26.589762 -13.352859 # C
194 1 -5.862690 -26.589762 13.352859 # C
195 1 -5.862690 26.589762 -13.352859 # C
196 1 -5.862690 26.589762 13.352859 # C
197 1 -26.589762 -13.352859 -5.862690 # C
198 1 -26.589762 -13.352859 5.862690 # C
199 1 -26.589762 13.352859 -5.862690 # C
200 1 -26.589762 13.352859 5.862690 # C
201 1 26.589762 -13.352859 -5.862690 # C
202 1 26.589762 -13.352859 5.862690 # C
203 1 26.589762 13.352859 -5.862690 # C
204 1 26.589762 13.352859 5.862690 # C
205 1 5.862690 -26.589762 -13.352859 # C
206 1 5.862690 -26.589762 13.352859 # C
207 1 5.862690 26.589762 -13.352859 # C
208 1 5.862690 26.589762 13.352859 # C
209 1 13.352859 -5.862690 -26.589762 # C
210 1 13.352859 -5.862690 26.589762 # C
211 1 13.352859 5.862690 -26.589762 # C
212 1 -13.352859 -5.862690 -26.589762 # C
213 1 -12.296583 -12.265528 19.230013 # C
214 1 -12.296583 12.265528 -19.230013 # C
215 1 -12.296583 12.265528 19.230013 # C
216 1 -12.265528 -19.230013 -12.296583 # C
217 1 -12.265528 -19.230013 12.296583 # C
218 1 -12.265528 19.230013 -12.296583 # C
219 1 -12.265528 19.230013 12.296583 # C
220 1 -19.230013 -12.296583 -12.265528 # C
221 1 -19.230013 -12.296583 12.265528 # C
222 1 -19.230013 12.296583 -12.265528 # C
223 1 -19.230013 12.296583 12.265528 # C
224 1 19.230013 -12.296583 -12.265528 # C
225 1 19.230013 -12.296583 12.265528 # C
226 1 19.230013 12.296583 -12.265528 # C
227 1 19.230013 12.296583 12.265528 # C
228 1 12.265528 -19.230013 -12.296583 # C
229 1 12.265528 -19.230013 12.296583 # C
230 1 12.265528 19.230013 -12.296583 # C
231 1 12.265528 19.230013 12.296583 # C
232 1 12.296583 -12.265528 -19.230013 # C
233 1 12.296583 -12.265528 19.230013 # C
234 1 12.296583 12.265528 -19.230013 # C
235 1 -12.296583 -12.265528 -19.230013 # C
236 1 -15.675784 -2.438903 23.166018 # C
237 1 -15.675784 2.438903 -23.166018 # C
238 1 -15.675784 2.438903 23.166018 # C
239 1 -2.438903 -23.166018 -15.675784 # C
240 1 -2.438903 -23.166018 15.675784 # C
241 1 -2.438903 23.166018 -15.675784 # C
242 1 -2.438903 23.166018 15.675784 # C
243 1 -23.166018 -15.675784 -2.438903 # C
244 1 -23.166018 -15.675784 2.438903 # C
245 1 -23.166018 15.675784 -2.438903 # C
246 1 -23.166018 15.675784 2.438903 # C
247 1 23.166018 -15.675784 -2.438903 # C
248 1 23.166018 -15.675784 2.438903 # C
249 1 23.166018 15.675784 -2.438903 # C
250 1 23.166018 15.675784 2.438903 # C
251 1 2.438903 -23.166018 -15.675784 # C
252 1 2.438903 -23.166018 15.675784 # C
253 1 2.438903 23.166018 -15.675784 # C
254 1 2.438903 23.166018 15.675784 # C
255 1 15.675784 -2.438903 -23.166018 # C
256 1 15.675784 -2.438903 23.166018 # C
257 1 15.675784 2.438903 -23.166018 # C
258 1 -15.675784 -2.438903 -23.166018 # C
259 1 -23.129078 -2.470873 15.685236 # C
260 1 -23.129078 2.470873 -15.685236 # C
261 1 -23.129078 2.470873 15.685236 # C
262 1 -2.470873 -15.685236 -23.129078 # C
263 1 -2.470873 -15.685236 23.129078 # C
264 1 -2.470873 15.685236 -23.129078 # C
265 1 -2.470873 15.685236 23.129078 # C
266 1 -15.685236 -23.129078 -2.470873 # C
267 1 -15.685236 -23.129078 2.470873 # C
268 1 -15.685236 23.129078 -2.470873 # C
269 1 -15.685236 23.129078 2.470873 # C
270 1 15.685236 -23.129078 -2.470873 # C
271 1 15.685236 -23.129078 2.470873 # C
272 1 15.685236 23.129078 -2.470873 # C
273 1 15.685236 23.129078 2.470873 # C
274 1 2.470873 -15.685236 -23.129078 # C
275 1 2.470873 -15.685236 23.129078 # C
276 1 2.470873 15.685236 -23.129078 # C
277 1 2.470873 15.685236 23.129078 # C
278 1 23.129078 -2.470873 -15.685236 # C
279 1 23.129078 -2.470873 15.685236 # C
280 1 23.129078 2.470873 -15.685236 # C
281 1 -23.129078 -2.470873 -15.685236 # C
282 1 -16.732050 -9.798643 16.763123 # C
283 1 -16.732050 9.798643 -16.763123 # C
284 1 -16.732050 9.798643 16.763123 # C
285 1 -9.798643 -16.763123 -16.732050 # C
286 1 -9.798643 -16.763123 16.732050 # C
287 1 -9.798643 16.763123 -16.732050 # C
288 1 -9.798643 16.763123 16.732050 # C
289 1 -16.763123 -16.732050 -9.798643 # C
290 1 -16.763123 -16.732050 9.798643 # C
291 1 -16.763123 16.732050 -9.798643 # C
292 1 -16.763123 16.732050 9.798643 # C
293 1 16.763123 -16.732050 -9.798643 # C
294 1 16.763123 -16.732050 9.798643 # C
295 1 16.763123 16.732050 -9.798643 # C
296 1 16.763123 16.732050 9.798643 # C
297 1 9.798643 -16.763123 -16.732050 # C
298 1 9.798643 -16.763123 16.732050 # C
299 1 9.798643 16.763123 -16.732050 # C
300 1 9.798643 16.763123 16.732050 # C
301 1 16.732050 -9.798643 -16.763123 # C
302 1 16.732050 -9.798643 16.763123 # C
303 1 16.732050 9.798643 -16.763123 # C
304 1 -16.732050 -9.798643 -16.763123 # C
305 1 -12.688836 -9.027906 22.886925 # C
306 1 -12.688836 9.027906 -22.886925 # C
307 1 -12.688836 9.027906 22.886925 # C
308 1 -9.027906 -22.886925 -12.688836 # C
309 1 -9.027906 -22.886925 12.688836 # C
310 1 -9.027906 22.886925 -12.688836 # C
311 1 -9.027906 22.886925 12.688836 # C
312 1 -22.886925 -12.688836 -9.027906 # C
313 1 -22.886925 -12.688836 9.027906 # C
314 1 -22.886925 12.688836 -9.027906 # C
315 1 -22.886925 12.688836 9.027906 # C
316 1 22.886925 -12.688836 -9.027906 # C
317 1 22.886925 -12.688836 9.027906 # C
318 1 22.886925 12.688836 -9.027906 # C
319 1 22.886925 12.688836 9.027906 # C
320 1 9.027906 -22.886925 -12.688836 # C
321 1 9.027906 -22.886925 12.688836 # C
322 1 9.027906 22.886925 -12.688836 # C
323 1 9.027906 22.886925 12.688836 # C
324 1 12.688836 -9.027906 -22.886925 # C
325 1 12.688836 -9.027906 22.886925 # C
326 1 12.688836 9.027906 -22.886925 # C
327 1 -12.688836 -9.027906 -22.886925 # C
328 1 -9.081467 -12.669270 22.846987 # C
329 1 -9.081467 12.669270 -22.846987 # C
330 1 -9.081467 12.669270 22.846987 # C
331 1 -12.669270 -22.846987 -9.081467 # C
332 1 -12.669270 -22.846987 9.081467 # C
333 1 -12.669270 22.846987 -9.081467 # C
334 1 -12.669270 22.846987 9.081467 # C
335 1 -22.846987 -9.081467 -12.669270 # C
336 1 -22.846987 -9.081467 12.669270 # C
337 1 -22.846987 9.081467 -12.669270 # C
338 1 -22.846987 9.081467 12.669270 # C
339 1 22.846987 -9.081467 -12.669270 # C
340 1 22.846987 -9.081467 12.669270 # C
341 1 22.846987 9.081467 -12.669270 # C
342 1 22.846987 9.081467 12.669270 # C
343 1 12.669270 -22.846987 -9.081467 # C
344 1 12.669270 -22.846987 9.081467 # C
345 1 12.669270 22.846987 -9.081467 # C
346 1 12.669270 22.846987 9.081467 # C
347 1 9.081467 -12.669270 -22.846987 # C
348 1 9.081467 -12.669270 22.846987 # C
349 1 9.081467 12.669270 -22.846987 # C
350 1 -9.081467 -12.669270 -22.846987 # C
351 1 -10.245063 -10.225409 26.575371 # C
352 1 -10.245063 10.225409 -26.575371 # C
353 1 -10.245063 10.225409 26.575371 # C
354 1 -10.225409 -26.575371 -10.245063 # C
355 1 -10.225409 -26.575371 10.245063 # C
356 1 -10.225409 26.575371 -10.245063 # C
357 1 -10.225409 26.575371 10.245063 # C
358 1 -26.575371 -10.245063 -10.225409 # C
359 1 -26.575371 -10.245063 10.225409 # C
360 1 -26.575371 10.245063 -10.225409 # C
361 1 -26.575371 10.245063 10.225409 # C
362 1 26.575371 -10.245063 -10.225409 # C
363 1 26.575371 -10.245063 10.225409 # C
364 1 26.575371 10.245063 -10.225409 # C
365 1 26.575371 10.245063 10.225409 # C
366 1 10.225409 -26.575371 -10.245063 # C
367 1 10.225409 -26.575371 10.245063 # C
368 1 10.225409 26.575371 -10.245063 # C
369 1 10.225409 26.575371 10.245063 # C
370 1 10.245063 -10.225409 -26.575371 # C
371 1 10.245063 -10.225409 26.575371 # C
372 1 10.245063 10.225409 -26.575371 # C
373 1 -10.245063 -10.225409 -26.575371 # C
374 1 -19.947153 -6.181679 16.359396 # C
375 1 -19.947153 6.181679 -16.359396 # C
376 1 -19.947153 6.181679 16.359396 # C
377 1 -6.181679 -16.359396 -19.947153 # C
378 1 -6.181679 -16.359396 19.947153 # C
379 1 -6.181679 16.359396 -19.947153 # C
380 1 -6.181679 16.359396 19.947153 # C
381 1 -16.359396 -19.947153 -6.181679 # C
382 1 -16.359396 -19.947153 6.181679 # C
383 1 -16.359396 19.947153 -6.181679 # C
384 1 -16.359396 19.947153 6.181679 # C
385 1 16.359396 -19.947153 -6.181679 # C
386 1 16.359396 -19.947153 6.181679 # C
387 1 16.359396 19.947153 -6.181679 # C
388 1 16.359396 19.947153 6.181679 # C
389 1 6.181679 -16.359396 -19.947153 # C
390 1 6.181679 -16.359396 19.947153 # C
391 1 6.181679 16.359396 -19.947153 # C
392 1 6.181679 16.359396 19.947153 # C
393 1 19.947153 -6.181679 -16.359396 # C
394 1 19.947153 -6.181679 16.359396 # C
395 1 19.947153 6.181679 -16.359396 # C
396 1 -19.947153 -6.181679 -16.359396 # C
397 1 -16.339800 -6.141740 20.000776 # C
398 1 -16.339800 6.141740 -20.000776 # C
399 1 -16.339800 6.141740 20.000776 # C
400 1 -6.141740 -20.000776 -16.339800 # C
401 1 -6.141740 -20.000776 16.339800 # C
402 1 -6.141740 20.000776 -16.339800 # C
403 1 -6.141740 20.000776 16.339800 # C
404 1 -20.000776 -16.339800 -6.141740 # C
405 1 -20.000776 -16.339800 6.141740 # C
406 1 -20.000776 16.339800 -6.141740 # C
407 1 -20.000776 16.339800 6.141740 # C
408 1 20.000776 -16.339800 -6.141740 # C
409 1 20.000776 -16.339800 6.141740 # C
410 1 20.000776 16.339800 -6.141740 # C
411 1 20.000776 16.339800 6.141740 # C
412 1 6.141740 -20.000776 -16.339800 # C
413 1 6.141740 -20.000776 16.339800 # C
414 1 6.141740 20.000776 -16.339800 # C
415 1 6.141740 20.000776 16.339800 # C
416 1 16.339800 -6.141740 -20.000776 # C
417 1 16.339800 -6.141740 20.000776 # C
418 1 16.339800 6.141740 -20.000776 # C
419 1 -16.339800 -6.141740 -20.000776 # C
420 1 -18.783560 -2.453287 18.803303 # C
421 1 -18.783560 2.453287 -18.803303 # C
422 1 -18.783560 2.453287 18.803303 # C
423 1 -2.453287 -18.803303 -18.783560 # C
424 1 -2.453287 -18.803303 18.783560 # C
425 1 -2.453287 18.803303 -18.783560 # C
426 1 -2.453287 18.803303 18.783560 # C
427 1 -18.803303 -18.783560 -2.453287 # C
428 1 -18.803303 -18.783560 2.453287 # C
429 1 -18.803303 18.783560 -2.453287 # C
430 1 -18.803303 18.783560 2.453287 # C
431 1 18.803303 -18.783560 -2.453287 # C
432 1 18.803303 -18.783560 2.453287 # C
433 1 18.803303 18.783560 -2.453287 # C
434 1 18.803303 18.783560 2.453287 # C
435 1 2.453287 -18.803303 -18.783560 # C
436 1 2.453287 -18.803303 18.783560 # C
437 1 2.453287 18.803303 -18.783560 # C
438 1 2.453287 18.803303 18.783560 # C
439 1 18.783560 -2.453287 -18.803303 # C
440 1 18.783560 -2.453287 18.803303 # C
441 1 18.783560 2.453287 -18.803303 # C
442 1 -18.783560 -2.453287 -18.803303 # C
443 1 -3.072691 -14.185730 27.787184 # C
444 1 -3.072691 14.185730 -27.787184 # C
445 1 -3.072691 14.185730 27.787184 # C
446 1 -14.185730 -27.787184 -3.072691 # C
447 1 -14.185730 -27.787184 3.072691 # C
448 1 -14.185730 27.787184 -3.072691 # C
449 1 -14.185730 27.787184 3.072691 # C
450 1 -27.787184 -3.072691 -14.185730 # C
451 1 -27.787184 -3.072691 14.185730 # C
452 1 -27.787184 3.072691 -14.185730 # C
453 1 -27.787184 3.072691 14.185730 # C
454 1 27.787184 -3.072691 -14.185730 # C
455 1 27.787184 -3.072691 14.185730 # C
456 1 27.787184 3.072691 -14.185730 # C
457 1 27.787182 3.072693 14.185730 # C
458 1 14.185730 -27.787184 -3.072691 # C
459 1 14.185730 -27.787184 3.072691 # C
460 1 14.185730 27.787184 -3.072691 # C
461 1 14.185730 27.787184 3.072691 # C
462 1 3.072691 -14.185730 -27.787184 # C
463 1 3.072691 -14.185730 27.787184 # C
464 1 3.072691 14.185730 -27.787184 # C
465 1 -3.072691 -14.185730 -27.787184 # C
466 1 -8.045416 -11.889339 27.801786 # C
467 1 -8.045416 11.889339 -27.801786 # C
468 1 -8.045416 11.889339 27.801786 # C
469 1 -11.889339 -27.801786 -8.045416 # C
470 1 -11.889339 -27.801786 8.045416 # C
471 1 -11.889339 27.801786 -8.045416 # C
472 1 -11.889339 27.801786 8.045416 # C
473 1 -27.801786 -8.045416 -11.889339 # C
474 1 -27.801786 -8.045416 11.889339 # C
475 1 -27.801786 8.045416 -11.889339 # C
476 1 -27.801786 8.045416 11.889339 # C
477 1 27.801786 -8.045416 -11.889339 # C
478 1 27.801786 -8.045416 11.889339 # C
479 1 27.801786 8.045416 -11.889339 # C
480 1 27.801786 8.045416 11.889339 # C
481 1 11.889339 -27.801786 -8.045416 # C
482 1 11.889339 -27.801786 8.045416 # C
483 1 11.889339 27.801786 -8.045416 # C
484 1 11.889339 27.801786 8.045416 # C
485 1 8.045416 -11.889339 -27.801786 # C
486 1 8.045416 -11.889339 27.801786 # C
487 1 8.045416 11.889339 -27.801786 # C
488 1 -8.045416 -11.889339 -27.801786 # C
489 1 -6.540897 -13.765726 24.071503 # C
490 1 -6.540897 13.765726 -24.071503 # C
491 1 -6.540897 13.765726 24.071503 # C
492 1 -13.765726 -24.071503 -6.540897 # C
493 1 -13.765726 -24.071503 6.540897 # C
494 1 -13.765726 24.071503 -6.540897 # C
495 1 -13.765726 24.071503 6.540897 # C
496 1 -24.071503 -6.540897 -13.765726 # C
497 1 -24.071503 -6.540897 13.765726 # C
498 1 -24.071503 6.540897 -13.765726 # C
499 1 -24.071503 6.540897 13.765726 # C
500 1 24.071503 -6.540897 -13.765726 # C
501 1 24.071503 -6.540897 13.765726 # C
502 1 24.071503 6.540897 -13.765726 # C
503 1 24.071499 6.540902 13.765726 # C
504 1 13.765726 -24.071503 -6.540897 # C
505 1 13.765726 -24.071503 6.540897 # C
506 1 13.765726 24.071503 -6.540897 # C
507 1 13.765726 24.071503 6.540897 # C
508 1 6.540897 -13.765726 -24.071503 # C
509 1 6.540897 -13.765726 24.071503 # C
510 1 6.540897 13.765726 -24.071503 # C
511 1 -6.540897 -13.765726 -24.071503 # C
512 1 -11.904149 -8.020013 27.810432 # C
513 1 -11.904149 8.020013 -27.810432 # C
514 1 -11.904149 8.020013 27.810432 # C
515 1 -8.020013 -27.810432 -11.904149 # C
516 1 -8.020013 -27.810432 11.904149 # C
517 1 -8.020013 27.810432 -11.904149 # C
518 1 -8.020013 27.810432 11.904149 # C
519 1 -27.810432 -11.904149 -8.020013 # C
520 1 -27.810432 -11.904149 8.020013 # C
521 1 -27.810432 11.904149 -8.020013 # C
522 1 -27.810432 11.904149 8.020013 # C
523 1 27.810432 -11.904149 -8.020013 # C
524 1 27.810432 -11.904149 8.020013 # C
525 1 27.810432 11.904149 -8.020013 # C
526 1 27.810432 11.904149 8.020013 # C
527 1 8.020013 -27.810432 -11.904149 # C
528 1 8.020013 -27.810432 11.904149 # C
529 1 8.020013 27.810432 -11.904149 # C
530 1 8.020013 27.810432 11.904149 # C
531 1 11.904149 -8.020013 -27.810432 # C
532 1 11.904149 -8.020013 27.810432 # C
533 1 11.904149 8.020013 -27.810432 # C
534 1 -11.904149 -8.020013 -27.810432 # C
535 1 -14.188663 -3.043604 27.809698 # C
536 1 -14.188663 3.043604 -27.809698 # C
537 1 -14.188663 3.043604 27.809698 # C
538 1 -3.043604 -27.809698 -14.188663 # C
539 1 -3.043604 -27.809698 14.188663 # C
540 1 -3.043604 27.809698 -14.188663 # C
541 1 -3.043604 27.809698 14.188663 # C
542 1 -27.809698 -14.188663 -3.043604 # C
543 1 -27.809698 -14.188663 3.043604 # C
544 1 -27.809698 14.188663 -3.043604 # C
545 1 -27.809698 14.188663 3.043604 # C
546 1 27.809698 -14.188663 -3.043604 # C
547 1 27.809698 -14.188663 3.043604 # C
548 1 27.809698 14.188663 -3.043604 # C
549 1 27.809698 14.188663 3.043604 # C
550 1 3.043604 -27.809698 -14.188663 # C
551 1 3.043604 -27.809698 14.188663 # C
552 1 3.043604 27.809698 -14.188663 # C
553 1 3.043604 27.809698 14.188663 # C
554 1 14.188663 -3.043604 -27.809698 # C
555 1 14.188663 -3.043604 27.809698 # C
556 1 14.188663 3.043604 -27.809698 # C
557 1 -14.188663 -3.043604 -27.809698 # C
558 1 -13.773606 -6.480767 24.129354 # C
559 1 -13.773606 6.480767 -24.129354 # C
560 1 -13.773606 6.480767 24.129354 # C
561 1 -6.480767 -24.129354 -13.773606 # C
562 1 -6.480767 -24.129354 13.773606 # C
563 1 -6.480767 24.129354 -13.773606 # C
564 1 -6.480767 24.129354 13.773606 # C
565 1 -24.129354 -13.773606 -6.480767 # C
566 1 -24.129354 -13.773606 6.480767 # C
567 1 -24.129354 13.773606 -6.480767 # C
568 1 -24.129354 13.773606 6.480767 # C
569 1 24.129354 -13.773606 -6.480767 # C
570 1 24.129354 -13.773606 6.480767 # C
571 1 24.129354 13.773606 -6.480767 # C
572 1 24.129354 13.773606 6.480767 # C
573 1 6.480767 -24.129354 -13.773606 # C
574 1 6.480767 -24.129354 13.773606 # C
575 1 6.480767 24.129354 -13.773606 # C
576 1 6.480767 24.129354 13.773606 # C
577 1 13.773606 -6.480767 -24.129354 # C
578 1 13.773606 -6.480767 24.129354 # C
579 1 13.773606 6.480767 -24.129354 # C
580 1 -13.773606 -6.480767 -24.129354 # C
581 1 -9.951864 -13.488998 20.417404 # C
582 1 -9.951864 13.488998 -20.417404 # C
583 1 -9.951864 13.488998 20.417404 # C
584 1 -13.488998 -20.417404 -9.951864 # C
585 1 -13.488998 -20.417404 9.951864 # C
586 1 -13.488998 20.417404 -9.951864 # C
587 1 -13.488998 20.417404 9.951864 # C
588 1 -20.417404 -9.951864 -13.488998 # C
589 1 -20.417404 -9.951864 13.488998 # C
590 1 -20.417404 9.951864 -13.488998 # C
591 1 -20.417404 9.951864 13.488998 # C
592 1 20.417404 -9.951864 -13.488998 # C
593 1 20.417404 -9.951864 13.488998 # C
594 1 20.417404 9.951864 -13.488998 # C
595 1 20.417400 9.951869 13.488998 # C
596 1 13.488998 -20.417404 -9.951864 # C
597 1 13.488998 -20.417404 9.951864 # C
598 1 13.488998 20.417404 -9.951864 # C
599 1 13.488998 20.417404 9.951864 # C
600 1 9.951864 -13.488998 -20.417404 # C
601 1 9.951864 -13.488998 20.417404 # C
602 1 9.951864 13.488998 -20.417404 # C
603 1 -9.951864 -13.488998 -20.417404 # C
604 1 -13.503135 -9.898882 20.458155 # C
605 1 -13.503135 9.898882 -20.458155 # C
606 1 -13.503135 9.898882 20.458155 # C
607 1 -9.898882 -20.458155 -13.503135 # C
608 1 -9.898882 -20.458155 13.503135 # C
609 1 -9.898882 20.458155 -13.503135 # C
610 1 -9.898882 20.458155 13.503135 # C
611 1 -20.458155 -13.503135 -9.898882 # C
612 1 -20.458155 -13.503135 9.898882 # C
613 1 -20.458155 13.503135 -9.898882 # C
614 1 -20.458155 13.503135 9.898882 # C
615 1 20.458155 -13.503135 -9.898882 # C
616 1 20.458155 -13.503135 9.898882 # C
617 1 20.458155 13.503135 -9.898882 # C
618 1 20.458155 13.503135 9.898882 # C
619 1 9.898882 -20.458155 -13.503135 # C
620 1 9.898882 -20.458155 13.503135 # C
621 1 9.898882 20.458155 -13.503135 # C
622 1 9.898882 20.458155 13.503135 # C
623 1 13.503135 -9.898882 -20.458155 # C
624 1 13.503135 -9.898882 20.458155 # C
625 1 13.503135 9.898882 -20.458155 # C
626 1 -13.503135 -9.898882 -20.458155 # C
627 1 -13.363096 -13.350574 16.865259 # C
628 1 -13.363096 13.350574 -16.865259 # C
629 1 -13.363096 13.350574 16.865259 # C
630 1 -13.350574 -16.865259 -13.363096 # C
631 1 -13.350574 -16.865259 13.363096 # C
632 1 -13.350574 16.865259 -13.363096 # C
633 1 -13.350574 16.865259 13.363096 # C
634 1 -16.865259 -13.363096 -13.350574 # C
635 1 -16.865259 -13.363096 13.350574 # C
636 1 -16.865259 13.363096 -13.350574 # C
637 1 -16.865259 13.363096 13.350574 # C
638 1 16.865259 -13.363096 -13.350574 # C
639 1 16.865259 -13.363096 13.350574 # C
640 1 16.865259 13.363096 -13.350574 # C
641 1 16.865257 13.363098 13.350574 # C
642 1 13.350574 -16.865259 -13.363096 # C
643 1 13.350574 -16.865259 13.363096 # C
644 1 13.350574 16.865259 -13.363096 # C
645 1 13.350574 16.865259 13.363096 # C
646 1 13.363096 -13.350574 -16.865259 # C
647 1 13.363096 -13.350574 16.865259 # C
648 1 13.363096 13.350574 -16.865259 # C
649 1 -13.363096 -13.350574 -16.865259 # C
650 1 -14.839982 -1.218960 25.985081 # C
651 1 -14.839982 1.218960 -25.985081 # C
652 1 -14.839982 1.218960 25.985081 # C
653 1 -1.218960 -25.985081 -14.839982 # C
654 1 -1.218960 -25.985081 14.839982 # C
655 1 -1.218960 25.985081 -14.839982 # C
656 1 -1.218960 25.985081 14.839982 # C
657 1 -25.985081 -14.839982 -1.218960 # C
658 1 -25.985081 -14.839982 1.218960 # C
659 1 -25.985081 14.839982 -1.218960 # C
660 1 -25.985081 14.839982 1.218960 # C
661 1 25.985081 -14.839982 -1.218960 # C
662 1 25.985081 -14.839982 1.218960 # C
663 1 25.985081 14.839982 -1.218960 # C
664 1 25.985081 14.839982 1.218960 # C
665 1 1.218960 -25.985081 -14.839982 # C
666 1 1.218960 -25.985081 14.839982 # C
667 1 1.218960 25.985081 -14.839982 # C
668 1 1.218960 25.985081 14.839982 # C
669 1 14.839982 -1.218960 -25.985081 # C
670 1 14.839982 -1.218960 25.985081 # C
671 1 14.839982 1.218960 -25.985081 # C
672 1 -14.839982 -1.218960 -25.985081 # C
673 1 -17.124487 -1.218219 21.008711 # C
674 1 -17.124487 1.218219 -21.008711 # C
675 1 -17.124487 1.218219 21.008711 # C
676 1 -1.218219 -21.008711 -17.124487 # C
677 1 -1.218219 -21.008711 17.124487 # C
678 1 -1.218219 21.008711 -17.124487 # C
679 1 -1.218219 21.008711 17.124487 # C
680 1 -21.008711 -17.124487 -1.218219 # C
681 1 -21.008711 -17.124487 1.218219 # C
682 1 -21.008711 17.124487 -1.218219 # C
683 1 -21.008711 17.124487 1.218219 # C
684 1 21.008711 -17.124487 -1.218219 # C
685 1 21.008711 -17.124487 1.218219 # C
686 1 21.008711 17.124487 -1.218219 # C
687 1 21.008711 17.124487 1.218219 # C
688 1 1.218219 -21.008711 -17.124487 # C
689 1 1.218219 -21.008711 17.124487 # C
690 1 1.218219 21.008711 -17.124487 # C
691 1 1.218219 21.008711 17.124487 # C
692 1 17.124487 -1.218219 -21.008711 # C
693 1 17.124487 -1.218219 21.008711 # C
694 1 17.124487 1.218219 -21.008711 # C
695 1 -17.124487 -1.218219 -21.008711 # C
696 1 -15.255035 -4.899319 22.547926 # C
697 1 -15.255035 4.899319 -22.547926 # C
698 1 -15.255035 4.899319 22.547926 # C
699 1 -4.899319 -22.547926 -15.255035 # C
700 1 -4.899319 -22.547926 15.255035 # C
701 1 -4.899319 22.547926 -15.255035 # C
702 1 -4.899319 22.547926 15.255035 # C
703 1 -22.547926 -15.255035 -4.899319 # C
704 1 -22.547926 -15.255035 4.899319 # C
705 1 -22.547926 15.255035 -4.899319 # C
706 1 -22.547926 15.255035 4.899319 # C
707 1 22.547926 -15.255035 -4.899319 # C
708 1 22.547926 -15.255035 4.899319 # C
709 1 22.547926 15.255035 -4.899319 # C
710 1 22.547926 15.255035 4.899319 # C
711 1 4.899319 -22.547926 -15.255035 # C
712 1 4.899319 -22.547926 15.255035 # C
713 1 4.899319 22.547926 -15.255035 # C
714 1 4.899319 22.547926 15.255035 # C
715 1 15.255035 -4.899319 -22.547926 # C
716 1 15.255035 -4.899319 22.547926 # C
717 1 15.255035 4.899319 -22.547926 # C
718 1 -15.255035 -4.899319 -22.547926 # C
719 1 -20.983192 -1.226865 17.139362 # C
720 1 -20.983192 1.226865 -17.139362 # C
721 1 -20.983192 1.226865 17.139362 # C
722 1 -1.226865 -17.139362 -20.983192 # C
723 1 -1.226865 -17.139362 20.983192 # C
724 1 -1.226865 17.139362 -20.983192 # C
725 1 -1.226865 17.139362 20.983192 # C
726 1 -17.139362 -20.983192 -1.226865 # C
727 1 -17.139362 -20.983192 1.226865 # C
728 1 -17.139362 20.983192 -1.226865 # C
729 1 -17.139362 20.983192 1.226865 # C
730 1 17.139362 -20.983192 -1.226865 # C
731 1 17.139362 -20.983192 1.226865 # C
732 1 17.139362 20.983192 -1.226865 # C
733 1 17.139362 20.983192 1.226865 # C
734 1 1.226865 -17.139362 -20.983192 # C