LAMMPS data file. CGCMM style. atom_style atomic generated by VMD/TopoTools v1.6 on Wed Oct 05 14:44:37 EDT 2016
 3072 atoms
 0 bonds
 0 angles
 0 dihedrals
 0 impropers
 1 atom types
 0 bond types
 0 angle types
 0 dihedral types
 0 improper types
 -29.11277 29.11277  xlo xhi
 -29.11277 29.11277  ylo yhi
 -29.11277 29.11277  zlo zhi

# Pair Coeffs
#
# 1  C

 Masses

 1 12.010700 # C

 Atoms

1 1 10.677896 10.647430 24.081644 # C
2 1 18.332529 4.928818 18.363058 # C
3 1 5.895837 13.335069 26.541132 # C
4 1 13.344486 5.859014 26.573090 # C
5 1 12.288873 12.257837 19.217955 # C
6 1 15.665956 2.437374 23.151493 # C
7 1 23.114574 2.469324 15.675401 # C
8 1 16.721558 9.792500 16.752611 # C
9 1 12.680880 9.022245 22.872574 # C
10 1 9.075773 12.661326 22.832663 # C
11 1 10.238640 10.218998 26.558706 # C
12 1 19.934647 6.177803 16.349138 # C
13 1 16.329554 6.137889 19.988237 # C
14 1 18.771784 2.451749 18.791512 # C
15 1 3.070762 14.176836 27.769764 # C
16 1 8.040372 11.881885 27.784353 # C
17 1 6.536791 13.757095 24.056416 # C
18 1 11.896685 8.014984 27.792995 # C
19 1 14.179767 3.041695 27.792263 # C
20 1 13.764970 6.476704 24.114225 # C
21 1 9.945619 13.480541 20.404608 # C
22 1 13.494669 9.892676 20.445328 # C
23 1 13.354715 13.342203 16.854687 # C
24 1 14.830678 1.218196 25.968788 # C
25 1 17.113750 1.217456 20.995539 # C
26 1 15.245470 4.896247 22.533789 # C
27 1 20.970036 1.226095 17.128616 # C
28 1 25.939657 1.240687 14.833616 # C
29 1 22.473623 4.954051 15.253361 # C
30 1 15.515769 8.565128 19.117783 # C
31 1 19.064800 8.605857 15.529909 # C
32 1 15.655720 12.155762 15.668240 # C
33 1 9.584780 11.405061 24.693150 # C
34 1 11.426922 9.551299 24.709190 # C
35 1 10.996143 10.960410 22.848907 # C
36 1 17.583508 4.301271 19.459200 # C
37 1 19.425640 4.317311 17.605427 # C
38 1 18.014282 6.161554 18.050066 # C
39 1 7.200237 12.766987 25.923895 # C
40 1 4.813895 13.949437 25.911201 # C
41 1 5.667856 13.262677 27.779139 # C
42 1 13.955046 4.765476 25.957417 # C
43 1 12.779416 7.162819 25.955544 # C
44 1 13.271684 5.639322 27.794985 # C
45 1 13.409761 11.611130 18.637480 # C
46 1 11.645590 13.394080 18.618231 # C
47 1 11.813064 11.776752 20.416124 # C
48 1 16.231022 3.054920 21.847691 # C
49 1 15.055396 3.053056 24.245020 # C
50 1 15.738760 1.215470 23.371187 # C
51 1 24.196522 3.099258 15.061018 # C
52 1 21.810177 3.086564 16.243490 # C
53 1 23.342550 1.231310 15.747798 # C
54 1 17.364836 10.392227 15.616365 # C
55 1 15.600676 10.372971 17.399319 # C
56 1 17.197367 8.594332 17.233706 # C
57 1 13.611907 8.183148 22.273508 # C
58 1 12.052994 10.208905 22.248367 # C
59 1 12.373055 8.677620 24.100660 # C
60 1 10.255616 12.024933 22.226576 # C
61 1 8.245156 13.601110 22.218058 # C
62 1 8.723185 12.354434 24.066500 # C
63 1 11.223411 9.322717 25.945435 # C
64 1 9.349035 11.205212 25.933969 # C
65 1 10.132932 10.112524 27.788843 # C
66 1 20.765259 6.792411 15.409343 # C
67 1 18.754807 6.783886 16.985533 # C
68 1 20.287233 4.943964 16.656040 # C
69 1 16.957438 6.762092 18.801569 # C
70 1 15.398532 6.736956 20.827328 # C
71 1 16.637379 4.909803 20.332874 # C
72 1 19.661383 3.076488 17.805286 # C
73 1 17.787018 3.065025 19.687794 # C
74 1 18.877487 1.221606 18.897995 # C
75 1 1.564231 14.402125 28.386919 # C
76 1 4.282545 13.773950 28.393286 # C
77 1 3.374132 14.279932 26.525686 # C
78 1 6.813441 12.618632 28.396296 # C
79 1 9.084513 11.022774 28.398500 # C
80 1 8.199186 11.957848 26.549959 # C
81 1 5.166596 14.174726 24.669125 # C
82 1 7.488490 12.963724 24.681253 # C
83 1 6.940869 14.087589 22.827059 # C
84 1 11.042331 9.059565 28.400785 # C
85 1 12.631240 6.786449 28.402653 # C
86 1 11.972057 8.171661 26.567781 # C
87 1 13.779785 4.258129 28.402773 # C
88 1 14.402763 1.546341 28.399931 # C
89 1 14.282225 3.329351 26.568802 # C
90 1 12.976903 7.440195 24.724667 # C
91 1 14.178042 5.105790 24.729431 # C
92 1 14.092149 6.875032 22.891155 # C
93 1 8.698798 14.018742 21.006931 # C
94 1 10.671821 12.426516 21.009649 # C
95 1 10.443579 13.967019 19.211361 # C
96 1 12.453710 10.623664 21.032513 # C
97 1 14.505219 8.042065 20.968399 # C
98 1 13.974911 10.399057 19.248465 # C
99 1 12.181122 13.932282 17.438202 # C
100 1 14.505218 11.573345 17.437101 # C
101 1 13.919864 13.915143 15.680656 # C
102 1 14.607681 0.610520 27.464123 # C
103 1 15.230661 0.607676 24.752369 # C
104 1 14.728218 2.441672 25.681135 # C
105 1 16.379200 0.607794 22.224070 # C
106 1 17.968096 0.609661 19.950960 # C
107 1 17.038378 2.442677 20.838854 # C
108 1 14.832399 4.281048 23.904699 # C
109 1 16.033533 4.285800 21.570305 # C
110 1 14.918292 6.119317 22.135448 # C
111 1 19.925898 0.611945 17.987740 # C
112 1 22.196960 0.614150 16.391857 # C
113 1 20.811228 2.460496 17.052645 # C
114 1 24.727863 0.617160 15.236514 # C
115 1 21.521927 4.329209 16.046745 # C
116 1 14.505219 8.647152 20.363310 # C
117 1 16.556723 7.977945 18.386799 # C
118 1 15.035529 9.761986 18.611395 # C
119 1 18.338604 8.000813 16.583941 # C
120 1 14.505218 12.168175 16.842272 # C
121 1 -10.677896 -10.647430 24.081644 # C
122 1 -10.677896 10.647430 -24.081644 # C
123 1 -10.677896 10.647430 24.081644 # C
124 1 -10.647430 -24.081644 -10.677896 # C
125 1 -10.647430 -24.081644 10.677896 # C
126 1 -10.647430 24.081644 -10.677896 # C
127 1 -10.647430 24.081644 10.677896 # C
128 1 -24.081644 -10.677896 -10.647430 # C
129 1 -24.081644 -10.677896 10.647430 # C
130 1 -24.081644 10.677896 -10.647430 # C
131 1 -24.081644 10.677896 10.647430 # C
132 1 24.081644 -10.677896 -10.647430 # C
133 1 24.081644 -10.677896 10.647430 # C
134 1 24.081644 10.677896 -10.647430 # C
135 1 24.081644 10.677896 10.647430 # C
136 1 10.647430 -24.081644 -10.677896 # C
137 1 10.647430 -24.081644 10.677896 # C
138 1 10.647430 24.081644 -10.677896 # C
139 1 10.647430 24.081644 10.677896 # C
140 1 10.677896 -10.647430 -24.081644 # C
141 1 10.677896 -10.647430 24.081644 # C
142 1 10.677896 10.647430 -24.081644 # C
143 1 -10.677896 -10.647430 -24.081644 # C
144 1 -18.332529 -4.928818 18.363058 # C
145 1 -18.332529 4.928818 -18.363058 # C
146 1 -18.332529 4.928818 18.363058 # C
147 1 -4.928818 -18.363058 -18.332529 # C
148 1 -4.928818 -18.363058 18.332529 # C
149 1 -4.928818 18.363058 -18.332529 # C
150 1 -4.928818 18.363058 18.332529 # C
151 1 -18.363058 -18.332529 -4.928818 # C
152 1 -18.363058 -18.332529 4.928818 # C
153 1 -18.363058 18.332529 -4.928818 # C
154 1 -18.363058 18.332529 4.928818 # C
155 1 18.363058 -18.332529 -4.928818 # C
156 1 18.363058 -18.332529 4.928818 # C
157 1 18.363058 18.332529 -4.928818 # C
158 1 18.363058 18.332529 4.928818 # C
159 1 4.928818 -18.363058 -18.332529 # C
160 1 4.928818 -18.363058 18.332529 # C
161 1 4.928818 18.363058 -18.332529 # C
162 1 4.928818 18.363058 18.332529 # C
163 1 18.332529 -4.928818 -18.363058 # C
164 1 18.332529 -4.928818 18.363058 # C
165 1 18.332529 4.928818 -18.363058 # C
166 1 -18.332529 -4.928818 -18.363058 # C
167 1 -5.895837 -13.335069 26.541132 # C
168 1 -5.895837 13.335069 -26.541132 # C
169 1 -5.895837 13.335069 26.541132 # C
170 1 -13.335069 -26.541132 -5.895837 # C
171 1 -13.335069 -26.541132 5.895837 # C
172 1 -13.335069 26.541132 -5.895837 # C
173 1 -13.335069 26.541132 5.895837 # C
174 1 -26.541132 -5.895837 -13.335069 # C
175 1 -26.541132 -5.895837 13.335069 # C
176 1 -26.541132 5.895837 -13.335069 # C
177 1 -26.541132 5.895837 13.335069 # C
178 1 26.541132 -5.895837 -13.335069 # C
179 1 26.541132 -5.895837 13.335069 # C
180 1 26.541132 5.895837 -13.335069 # C
181 1 26.541132 5.895837 13.335069 # C
182 1 13.335069 -26.541132 -5.895837 # C
183 1 13.335069 -26.541132 5.895837 # C
184 1 13.335069 26.541132 -5.895837 # C
185 1 13.335069 26.541132 5.895837 # C
186 1 5.895837 -13.335069 -26.541132 # C
187 1 5.895837 -13.335069 26.541132 # C
188 1 5.895837 13.335069 -26.541132 # C
189 1 -5.895837 -13.335069 -26.541132 # C
190 1 -13.344486 -5.859014 26.573090 # C
191 1 -13.344486 5.859014 -26.573090 # C
192 1 -13.344486 5.859014 26.573090 # C
193 1 -5.859014 -26.573090 -13.344486 # C
194 1 -5.859014 -26.573090 13.344486 # C
195 1 -5.859014 26.573090 -13.344486 # C
196 1 -5.859014 26.573090 13.344486 # C
197 1 -26.573090 -13.344486 -5.859014 # C
198 1 -26.573090 -13.344486 5.859014 # C
199 1 -26.573090 13.344486 -5.859014 # C
200 1 -26.573090 13.344486 5.859014 # C
201 1 26.573090 -13.344486 -5.859014 # C
202 1 26.573090 -13.344486 5.859014 # C
203 1 26.573090 13.344486 -5.859014 # C
204 1 26.573090 13.344486 5.859014 # C
205 1 5.859014 -26.573090 -13.344486 # C
206 1 5.859014 -26.573090 13.344486 # C
207 1 5.859014 26.573090 -13.344486 # C
208 1 5.859014 26.573090 13.344486 # C
209 1 13.344486 -5.859014 -26.573090 # C
210 1 13.344486 -5.859014 26.573090 # C
211 1 13.344486 5.859014 -26.573090 # C
212 1 -13.344486 -5.859014 -26.573090 # C
213 1 -12.288873 -12.257837 19.217955 # C
214 1 -12.288873 12.257837 -19.217955 # C
215 1 -12.288873 12.257837 19.217955 # C
216 1 -12.257837 -19.217955 -12.288873 # C
217 1 -12.257837 -19.217955 12.288873 # C
218 1 -12.257837 19.217955 -12.288873 # C
219 1 -12.257837 19.217955 12.288873 # C
220 1 -19.217955 -12.288873 -12.257837 # C
221 1 -19.217955 -12.288873 12.257837 # C
222 1 -19.217955 12.288873 -12.257837 # C
223 1 -19.217955 12.288873 12.257837 # C
224 1 19.217955 -12.288873 -12.257837 # C
225 1 19.217955 -12.288873 12.257837 # C
226 1 19.217955 12.288873 -12.257837 # C
227 1 19.217955 12.288873 12.257837 # C
228 1 12.257837 -19.217955 -12.288873 # C
229 1 12.257837 -19.217955 12.288873 # C
230 1 12.257837 19.217955 -12.288873 # C
231 1 12.257837 19.217955 12.288873 # C
232 1 12.288873 -12.257837 -19.217955 # C
233 1 12.288873 -12.257837 19.217955 # C
234 1 12.288873 12.257837 -19.217955 # C
235 1 -12.288873 -12.257837 -19.217955 # C
236 1 -15.665956 -2.437374 23.151493 # C
237 1 -15.665956 2.437374 -23.151493 # C
238 1 -15.665956 2.437374 23.151493 # C
239 1 -2.437374 -23.151493 -15.665956 # C
240 1 -2.437374 -23.151493 15.665956 # C
241 1 -2.437374 23.151493 -15.665956 # C
242 1 -2.437374 23.151493 15.665956 # C
243 1 -23.151493 -15.665956 -2.437374 # C
244 1 -23.151493 -15.665956 2.437374 # C
245 1 -23.151493 15.665956 -2.437374 # C
246 1 -23.151493 15.665956 2.437374 # C
247 1 23.151493 -15.665956 -2.437374 # C
248 1 23.151493 -15.665956 2.437374 # C
249 1 23.151493 15.665956 -2.437374 # C
250 1 23.151493 15.665956 2.437374 # C
251 1 2.437374 -23.151493 -15.665956 # C
252 1 2.437374 -23.151493 15.665956 # C
253 1 2.437374 23.151493 -15.665956 # C
254 1 2.437374 23.151493 15.665956 # C
255 1 15.665956 -2.437374 -23.151493 # C
256 1 15.665956 -2.437374 23.151493 # C
257 1 15.665956 2.437374 -23.151493 # C
258 1 -15.665956 -2.437374 -23.151493 # C
259 1 -23.114574 -2.469324 15.675401 # C
260 1 -23.114574 2.469324 -15.675401 # C
261 1 -23.114574 2.469324 15.675401 # C
262 1 -2.469324 -15.675401 -23.114574 # C
263 1 -2.469324 -15.675401 23.114574 # C
264 1 -2.469324 15.675401 -23.114574 # C
265 1 -2.469324 15.675401 23.114574 # C
266 1 -15.675401 -23.114574 -2.469324 # C
267 1 -15.675401 -23.114574 2.469324 # C
268 1 -15.675401 23.114574 -2.469324 # C
269 1 -15.675401 23.114574 2.469324 # C
270 1 15.675401 -23.114574 -2.469324 # C
271 1 15.675401 -23.114574 2.469324 # C
272 1 15.675401 23.114574 -2.469324 # C
273 1 15.675401 23.114574 2.469324 # C
274 1 2.469324 -15.675401 -23.114574 # C
275 1 2.469324 -15.675401 23.114574 # C
276 1 2.469324 15.675401 -23.114574 # C
277 1 2.469324 15.675401 23.114574 # C
278 1 23.114574 -2.469324 -15.675401 # C
279 1 23.114574 -2.469324 15.675401 # C
280 1 23.114574 2.469324 -15.675401 # C
281 1 -23.114574 -2.469324 -15.675401 # C
282 1 -16.721558 -9.792500 16.752611 # C
283 1 -16.721558 9.792500 -16.752611 # C
284 1 -16.721558 9.792500 16.752611 # C
285 1 -9.792500 -16.752611 -16.721558 # C
286 1 -9.792500 -16.752611 16.721558 # C
287 1 -9.792500 16.752611 -16.721558 # C
288 1 -9.792500 16.752611 16.721558 # C
289 1 -16.752611 -16.721558 -9.792500 # C
290 1 -16.752611 -16.721558 9.792500 # C
291 1 -16.752611 16.721558 -9.792500 # C
292 1 -16.752611 16.721558 9.792500 # C
293 1 16.752611 -16.721558 -9.792500 # C
294 1 16.752611 -16.721558 9.792500 # C
295 1 16.752611 16.721558 -9.792500 # C
296 1 16.752611 16.721558 9.792500 # C
297 1 9.792500 -16.752611 -16.721558 # C
298 1 9.792500 -16.752611 16.721558 # C
299 1 9.792500 16.752611 -16.721558 # C
300 1 9.792500 16.752611 16.721558 # C
301 1 16.721558 -9.792500 -16.752611 # C
302 1 16.721558 -9.792500 16.752611 # C
303 1 16.721558 9.792500 -16.752611 # C
304 1 -16.721558 -9.792500 -16.752611 # C
305 1 -12.680880 -9.022245 22.872574 # C
306 1 -12.680880 9.022245 -22.872574 # C
307 1 -12.680880 9.022245 22.872574 # C
308 1 -9.022245 -22.872574 -12.680880 # C
309 1 -9.022245 -22.872574 12.680880 # C
310 1 -9.022245 22.872574 -12.680880 # C
311 1 -9.022245 22.872574 12.680880 # C
312 1 -22.872574 -12.680880 -9.022245 # C
313 1 -22.872574 -12.680880 9.022245 # C
314 1 -22.872574 12.680880 -9.022245 # C
315 1 -22.872574 12.680880 9.022245 # C
316 1 22.872574 -12.680880 -9.022245 # C
317 1 22.872574 -12.680880 9.022245 # C
318 1 22.872574 12.680880 -9.022245 # C
319 1 22.872574 12.680880 9.022245 # C
320 1 9.022245 -22.872574 -12.680880 # C
321 1 9.022245 -22.872574 12.680880 # C
322 1 9.022245 22.872574 -12.680880 # C
323 1 9.022245 22.872574 12.680880 # C
324 1 12.680880 -9.022245 -22.872574 # C
325 1 12.680880 -9.022245 22.872574 # C
326 1 12.680880 9.022245 -22.872574 # C
327 1 -12.680880 -9.022245 -22.872574 # C
328 1 -9.075773 -12.661326 22.832663 # C
329 1 -9.075773 12.661326 -22.832663 # C
330 1 -9.075773 12.661326 22.832663 # C
331 1 -12.661326 -22.832663 -9.075773 # C
332 1 -12.661326 -22.832663 9.075773 # C
333 1 -12.661326 22.832663 -9.075773 # C
334 1 -12.661326 22.832663 9.075773 # C
335 1 -22.832663 -9.075773 -12.661326 # C
336 1 -22.832663 -9.075773 12.661326 # C
337 1 -22.832663 9.075773 -12.661326 # C
338 1 -22.832663 9.075773 12.661326 # C
339 1 22.832663 -9.075773 -12.661326 # C
340 1 22.832663 -9.075773 12.661326 # C
341 1 22.832663 9.075773 -12.661326 # C
342 1 22.832663 9.075773 12.661326 # C
343 1 12.661326 -22.832663 -9.075773 # C
344 1 12.661326 -22.832663 9.075773 # C
345 1 12.661326 22.832663 -9.075773 # C
346 1 12.661326 22.832663 9.075773 # C
347 1 9.075773 -12.661326 -22.832663 # C
348 1 9.075773 -12.661326 22.832663 # C
349 1 9.075773 12.661326 -22.832663 # C
350 1 -9.075773 -12.661326 -22.832663 # C
351 1 -10.238640 -10.218998 26.558706 # C
352 1 -10.238640 10.218998 -26.558706 # C
353 1 -10.238640 10.218998 26.558706 # C
354 1 -10.218998 -26.558706 -10.238640 # C
355 1 -10.218998 -26.558706 10.238640 # C
356 1 -10.218998 26.558706 -10.238640 # C
357 1 -10.218998 26.558706 10.238640 # C
358 1 -26.558706 -10.238640 -10.218998 # C
359 1 -26.558706 -10.238640 10.218998 # C
360 1 -26.558706 10.238640 -10.218998 # C
361 1 -26.558706 10.238640 10.218998 # C
362 1 26.558706 -10.238640 -10.218998 # C
363 1 26.558706 -10.238640 10.218998 # C
364 1 26.558706 10.238640 -10.218998 # C
365 1 26.558706 10.238640 10.218998 # C
366 1 10.218998 -26.558706 -10.238640 # C
367 1 10.218998 -26.558706 10.238640 # C
368 1 10.218998 26.558706 -10.238640 # C
369 1 10.218998 26.558706 10.238640 # C
370 1 10.238640 -10.218998 -26.558706 # C
371 1 10.238640 -10.218998 26.558706 # C
372 1 10.238640 10.218998 -26.558706 # C
373 1 -10.238640 -10.218998 -26.558706 # C
374 1 -19.934647 -6.177803 16.349138 # C
375 1 -19.934647 6.177803 -16.349138 # C
376 1 -19.934647 6.177803 16.349138 # C
377 1 -6.177803 -16.349138 -19.934647 # C
378 1 -6.177803 -16.349138 19.934647 # C
379 1 -6.177803 16.349138 -19.934647 # C
380 1 -6.177803 16.349138 19.934647 # C
381 1 -16.349138 -19.934647 -6.177803 # C
382 1 -16.349138 -19.934647 6.177803 # C
383 1 -16.349138 19.934647 -6.177803 # C
384 1 -16.349138 19.934647 6.177803 # C
385 1 16.349138 -19.934647 -6.177803 # C
386 1 16.349138 -19.934647 6.177803 # C
387 1 16.349138 19.934647 -6.177803 # C
388 1 16.349138 19.934647 6.177803 # C
389 1 6.177803 -16.349138 -19.934647 # C
390 1 6.177803 -16.349138 19.934647 # C
391 1 6.177803 16.349138 -19.934647 # C
392 1 6.177803 16.349138 19.934647 # C
393 1 19.934647 -6.177803 -16.349138 # C
394 1 19.934647 -6.177803 16.349138 # C
395 1 19.934647 6.177803 -16.349138 # C
396 1 -19.934647 -6.177803 -16.349138 # C
397 1 -16.329554 -6.137889 19.988237 # C
398 1 -16.329554 6.137889 -19.988237 # C
399 1 -16.329554 6.137889 19.988237 # C
400 1 -6.137889 -19.988237 -16.329554 # C
401 1 -6.137889 -19.988237 16.329554 # C
402 1 -6.137889 19.988237 -16.329554 # C
403 1 -6.137889 19.988237 16.329554 # C
404 1 -19.988237 -16.329554 -6.137889 # C
405 1 -19.988237 -16.329554 6.137889 # C
406 1 -19.988237 16.329554 -6.137889 # C
407 1 -19.988237 16.329554 6.137889 # C
408 1 19.988237 -16.329554 -6.137889 # C
409 1 19.988237 -16.329554 6.137889 # C
410 1 19.988237 16.329554 -6.137889 # C
411 1 19.988237 16.329554 6.137889 # C
412 1 6.137889 -19.988237 -16.329554 # C
413 1 6.137889 -19.988237 16.329554 # C
414 1 6.137889 19.988237 -16.329554 # C
415 1 6.137889 19.988237 16.329554 # C
416 1 16.329554 -6.137889 -19.988237 # C
417 1 16.329554 -6.137889 19.988237 # C
418 1 16.329554 6.137889 -19.988237 # C
419 1 -16.329554 -6.137889 -19.988237 # C
420 1 -18.771784 -2.451749 18.791512 # C
421 1 -18.771784 2.451749 -18.791512 # C
422 1 -18.771784 2.451749 18.791512 # C
423 1 -2.451749 -18.791512 -18.771784 # C
424 1 -2.451749 -18.791512 18.771784 # C
425 1 -2.451749 18.791512 -18.771784 # C
426 1 -2.451749 18.791512 18.771784 # C
427 1 -18.791512 -18.771784 -2.451749 # C
428 1 -18.791512 -18.771784 2.451749 # C
429 1 -18.791512 18.771784 -2.451749 # C
430 1 -18.791512 18.771784 2.451749 # C
431 1 18.791512 -18.771784 -2.451749 # C
432 1 18.791512 -18.771784 2.451749 # C
433 1 18.791512 18.771784 -2.451749 # C
434 1 18.791512 18.771784 2.451749 # C
435 1 2.451749 -18.791512 -18.771784 # C
436 1 2.451749 -18.791512 18.771784 # C
437 1 2.451749 18.791512 -18.771784 # C
438 1 2.451749 18.791512 18.771784 # C
439 1 18.771784 -2.451749 -18.791512 # C
440 1 18.771784 -2.451749 18.791512 # C
441 1 18.771784 2.451749 -18.791512 # C
442 1 -18.771784 -2.451749 -18.791512 # C
443 1 -3.070764 -14.176836 27.769760 # C
444 1 -3.070764 14.176836 -27.769760 # C
445 1 -3.070764 14.176836 27.769760 # C
446 1 -14.176836 -27.769760 -3.070764 # C
447 1 -14.176836 -27.769760 3.070764 # C
448 1 -14.176836 27.769760 -3.070764 # C
449 1 -14.176836 27.769760 3.070764 # C
450 1 -27.769760 -3.070764 -14.176836 # C
451 1 -27.769760 -3.070764 14.176836 # C
452 1 -27.769760 3.070764 -14.176836 # C
453 1 -27.769760 3.070764 14.176836 # C
454 1 27.769760 -3.070764 -14.176836 # C
455 1 27.769760 -3.070764 14.176836 # C
456 1 27.769760 3.070764 -14.176836 # C
457 1 27.769758 3.070766 14.176836 # C
458 1 14.176836 -27.769760 -3.070764 # C
459 1 14.176836 -27.769760 3.070764 # C
460 1 14.176836 27.769760 -3.070764 # C
461 1 14.176836 27.769760 3.070764 # C
462 1 3.070764 -14.176836 -27.769760 # C
463 1 3.070764 -14.176836 27.769760 # C
464 1 3.070764 14.176836 -27.769760 # C
465 1 -3.070764 -14.176836 -27.769760 # C
466 1 -8.040372 -11.881885 27.784353 # C
467 1 -8.040372 11.881885 -27.784353 # C
468 1 -8.040372 11.881885 27.784353 # C
469 1 -11.881885 -27.784353 -8.040372 # C
470 1 -11.881885 -27.784353 8.040372 # C
471 1 -11.881885 27.784353 -8.040372 # C
472 1 -11.881885 27.784353 8.040372 # C
473 1 -27.784353 -8.040372 -11.881885 # C
474 1 -27.784353 -8.040372 11.881885 # C
475 1 -27.784353 8.040372 -11.881885 # C
476 1 -27.784353 8.040372 11.881885 # C
477 1 27.784353 -8.040372 -11.881885 # C
478 1 27.784353 -8.040372 11.881885 # C
479 1 27.784353 8.040372 -11.881885 # C
480 1 27.784353 8.040372 11.881885 # C
481 1 11.881885 -27.784353 -8.040372 # C
482 1 11.881885 -27.784353 8.040372 # C
483 1 11.881885 27.784353 -8.040372 # C
484 1 11.881885 27.784353 8.040372 # C
485 1 8.040372 -11.881885 -27.784353 # C
486 1 8.040372 -11.881885 27.784353 # C
487 1 8.040372 11.881885 -27.784353 # C
488 1 -8.040372 -11.881885 -27.784353 # C
489 1 -6.536796 -13.757095 24.056410 # C
490 1 -6.536796 13.757095 -24.056410 # C
491 1 -6.536796 13.757095 24.056410 # C
492 1 -13.757095 -24.056410 -6.536796 # C
493 1 -13.757095 -24.056410 6.536796 # C
494 1 -13.757095 24.056410 -6.536796 # C
495 1 -13.757095 24.056410 6.536796 # C
496 1 -24.056410 -6.536796 -13.757095 # C
497 1 -24.056410 -6.536796 13.757095 # C
498 1 -24.056410 6.536796 -13.757095 # C
499 1 -24.056410 6.536796 13.757095 # C
500 1 24.056410 -6.536796 -13.757095 # C
501 1 24.056410 -6.536796 13.757095 # C
502 1 24.056410 6.536796 -13.757095 # C
503 1 24.056404 6.536801 13.757095 # C
504 1 13.757095 -24.056410 -6.536796 # C
505 1 13.757095 -24.056410 6.536796 # C
506 1 13.757095 24.056410 -6.536796 # C
507 1 13.757095 24.056410 6.536796 # C
508 1 6.536796 -13.757095 -24.056410 # C
509 1 6.536796 -13.757095 24.056410 # C
510 1 6.536796 13.757095 -24.056410 # C
511 1 -6.536796 -13.757095 -24.056410 # C
512 1 -11.896685 -8.014984 27.792995 # C
513 1 -11.896685 8.014984 -27.792995 # C
514 1 -11.896685 8.014984 27.792995 # C
515 1 -8.014984 -27.792995 -11.896685 # C
516 1 -8.014984 -27.792995 11.896685 # C
517 1 -8.014984 27.792995 -11.896685 # C
518 1 -8.014984 27.792995 11.896685 # C
519 1 -27.792995 -11.896685 -8.014984 # C
520 1 -27.792995 -11.896685 8.014984 # C
521 1 -27.792995 11.896685 -8.014984 # C
522 1 -27.792995 11.896685 8.014984 # C
523 1 27.792995 -11.896685 -8.014984 # C
524 1 27.792995 -11.896685 8.014984 # C
525 1 27.792995 11.896685 -8.014984 # C
526 1 27.792995 11.896685 8.014984 # C
527 1 8.014984 -27.792995 -11.896685 # C
528 1 8.014984 -27.792995 11.896685 # C
529 1 8.014984 27.792995 -11.896685 # C
530 1 8.014984 27.792995 11.896685 # C
531 1 11.896685 -8.014984 -27.792995 # C
532 1 11.896685 -8.014984 27.792995 # C
533 1 11.896685 8.014984 -27.792995 # C
534 1 -11.896685 -8.014984 -27.792995 # C
535 1 -14.179767 -3.041695 27.792263 # C
536 1 -14.179767 3.041695 -27.792263 # C
537 1 -14.179767 3.041695 27.792263 # C
538 1 -3.041695 -27.792263 -14.179767 # C
539 1 -3.041695 -27.792263 14.179767 # C
540 1 -3.041695 27.792263 -14.179767 # C
541 1 -3.041695 27.792263 14.179767 # C
542 1 -27.792263 -14.179767 -3.041695 # C
543 1 -27.792263 -14.179767 3.041695 # C
544 1 -27.792263 14.179767 -3.041695 # C
545 1 -27.792263 14.179767 3.041695 # C
546 1 27.792263 -14.179767 -3.041695 # C
547 1 27.792263 -14.179767 3.041695 # C
548 1 27.792263 14.179767 -3.041695 # C
549 1 27.792263 14.179767 3.041695 # C
550 1 3.041695 -27.792263 -14.179767 # C
551 1 3.041695 -27.792263 14.179767 # C
552 1 3.041695 27.792263 -14.179767 # C
553 1 3.041695 27.792263 14.179767 # C
554 1 14.179767 -3.041695 -27.792263 # C
555 1 14.179767 -3.041695 27.792263 # C
556 1 14.179767 3.041695 -27.792263 # C
557 1 -14.179767 -3.041695 -27.792263 # C
558 1 -13.764970 -6.476704 24.114225 # C
559 1 -13.764970 6.476704 -24.114225 # C
560 1 -13.764970 6.476704 24.114225 # C
561 1 -6.476704 -24.114225 -13.764970 # C
562 1 -6.476704 -24.114225 13.764970 # C
563 1 -6.476704 24.114225 -13.764970 # C
564 1 -6.476704 24.114225 13.764970 # C
565 1 -24.114225 -13.764970 -6.476704 # C
566 1 -24.114225 -13.764970 6.476704 # C
567 1 -24.114225 13.764970 -6.476704 # C
568 1 -24.114225 13.764970 6.476704 # C
569 1 24.114225 -13.764970 -6.476704 # C
570 1 24.114225 -13.764970 6.476704 # C
571 1 24.114225 13.764970 -6.476704 # C
572 1 24.114225 13.764970 6.476704 # C
573 1 6.476704 -24.114225 -13.764970 # C
574 1 6.476704 -24.114225 13.764970 # C
575 1 6.476704 24.114225 -13.764970 # C
576 1 6.476704 24.114225 13.764970 # C
577 1 13.764970 -6.476704 -24.114225 # C
578 1 13.764970 -6.476704 24.114225 # C
579 1 13.764970 6.476704 -24.114225 # C
580 1 -13.764970 -6.476704 -24.114225 # C
581 1 -9.945624 -13.480541 20.404602 # C
582 1 -9.945624 13.480541 -20.404602 # C
583 1 -9.945624 13.480541 20.404602 # C
584 1 -13.480541 -20.404602 -9.945624 # C
585 1 -13.480541 -20.404602 9.945624 # C
586 1 -13.480541 20.404602 -9.945624 # C
587 1 -13.480541 20.404602 9.945624 # C
588 1 -20.404602 -9.945624 -13.480541 # C
589 1 -20.404602 -9.945624 13.480541 # C
590 1 -20.404602 9.945624 -13.480541 # C
591 1 -20.404602 9.945624 13.480541 # C
592 1 20.404602 -9.945624 -13.480541 # C
593 1 20.404602 -9.945624 13.480541 # C
594 1 20.404602 9.945624 -13.480541 # C
595 1 20.404598 9.945629 13.480541 # C
596 1 13.480541 -20.404602 -9.945624 # C
597 1 13.480541 -20.404602 9.945624 # C
598 1 13.480541 20.404602 -9.945624 # C
599 1 13.480541 20.404602 9.945624 # C
600 1 9.945624 -13.480541 -20.404602 # C
601 1 9.945624 -13.480541 20.404602 # C
602 1 9.945624 13.480541 -20.404602 # C
603 1 -9.945624 -13.480541 -20.404602 # C
604 1 -13.494669 -9.892676 20.445328 # C
605 1 -13.494669 9.892676 -20.445328 # C
606 1 -13.494669 9.892676 20.445328 # C
607 1 -9.892676 -20.445328 -13.494669 # C
608 1 -9.892676 -20.445328 13.494669 # C
609 1 -9.892676 20.445328 -13.494669 # C
610 1 -9.892676 20.445328 13.494669 # C
611 1 -20.445328 -13.494669 -9.892676 # C
612 1 -20.445328 -13.494669 9.892676 # C
613 1 -20.445328 13.494669 -9.892676 # C
614 1 -20.445328 13.494669 9.892676 # C
615 1 20.445328 -13.494669 -9.892676 # C
616 1 20.445328 -13.494669 9.892676 # C
617 1 20.445328 13.494669 -9.892676 # C
618 1 20.445328 13.494669 9.892676 # C
619 1 9.892676 -20.445328 -13.494669 # C
620 1 9.892676 -20.445328 13.494669 # C
621 1 9.892676 20.445328 -13.494669 # C
622 1 9.892676 20.445328 13.494669 # C
623 1 13.494669 -9.892676 -20.445328 # C
624 1 13.494669 -9.892676 20.445328 # C
625 1 13.494669 9.892676 -20.445328 # C
626 1 -13.494669 -9.892676 -20.445328 # C
627 1 -13.354717 -13.342203 16.854685 # C
628 1 -13.354717 13.342203 -16.854685 # C
629 1 -13.354717 13.342203 16.854685 # C
630 1 -13.342203 -16.854685 -13.354717 # C
631 1 -13.342203 -16.854685 13.354717 # C
632 1 -13.342203 16.854685 -13.354717 # C
633 1 -13.342203 16.854685 13.354717 # C
634 1 -16.854685 -13.354717 -13.342203 # C
635 1 -16.854685 -13.354717 13.342203 # C
636 1 -16.854685 13.354717 -13.342203 # C
637 1 -16.854685 13.354717 13.342203 # C
638 1 16.854685 -13.354717 -13.342203 # C
639 1 16.854685 -13.354717 13.342203 # C
640 1 16.854685 13.354717 -13.342203 # C
641 1 16.854683 13.354719 13.342203 # C
642 1 13.342203 -16.854685 -13.354717 # C
643 1 13.342203 -16.854685 13.354717 # C
644 1 13.342203 16.854685 -13.354717 # C
645 1 13.342203 16.854685 13.354717 # C
646 1 13.354717 -13.342203 -16.854685 # C
647 1 13.354717 -13.342203 16.854685 # C
648 1 13.354717 13.342203 -16.854685 # C
649 1 -13.354717 -13.342203 -16.854685 # C
650 1 -14.830678 -1.218196 25.968788 # C
651 1 -14.830678 1.218196 -25.968788 # C
652 1 -14.830678 1.218196 25.968788 # C
653 1 -1.218196 -25.968788 -14.830678 # C
654 1 -1.218196 -25.968788 14.830678 # C
655 1 -1.218196 25.968788 -14.830678 # C
656 1 -1.218196 25.968788 14.830678 # C
657 1 -25.968788 -14.830678 -1.218196 # C
658 1 -25.968788 -14.830678 1.218196 # C
659 1 -25.968788 14.830678 -1.218196 # C
660 1 -25.968788 14.830678 1.218196 # C
661 1 25.968788 -14.830678 -1.218196 # C
662 1 25.968788 -14.830678 1.218196 # C
663 1 25.968788 14.830678 -1.218196 # C
664 1 25.968788 14.830678 1.218196 # C
665 1 1.218196 -25.968788 -14.830678 # C
666 1 1.218196 -25.968788 14.830678 # C
667 1 1.218196 25.968788 -14.830678 # C
668 1 1.218196 25.968788 14.830678 # C
669 1 14.830678 -1.218196 -25.968788 # C
670 1 14.830678 -1.218196 25.968788 # C
671 1 14.830678 1.218196 -25.968788 # C
672 1 -14.830678 -1.218196 -25.968788 # C
673 1 -17.113750 -1.217456 20.995539 # C
674 1 -17.113750 1.217456 -20.995539 # C
675 1 -17.113750 1.217456 20.995539 # C
676 1 -1.217456 -20.995539 -17.113750 # C
677 1 -1.217456 -20.995539 17.113750 # C
678 1 -1.217456 20.995539 -17.113750 # C
679 1 -1.217456 20.995539 17.113750 # C
680 1 -20.995539 -17.113750 -1.217456 # C
681 1 -20.995539 -17.113750 1.217456 # C
682 1 -20.995539 17.113750 -1.217456 # C
683 1 -20.995539 17.113750 1.217456 # C
684 1 20.995539 -17.113750 -1.217456 # C
685 1 20.995539 -17.113750 1.217456 # C
686 1 20.995539 17.113750 -1.217456 # C
687 1 20.995539 17.113750 1.217456 # C
688 1 1.217456 -20.995539 -17.113750 # C
689 1 1.217456 -20.995539 17.113750 # C
690 1 1.217456 20.995539 -17.113750 # C
691 1 1.217456 20.995539 17.113750 # C
692 1 17.113750 -1.217456 -20.995539 # C
693 1 17.113750 -1.217456 20.995539 # C
694 1 17.113750 1.217456 -20.995539 # C
695 1 -17.113750 -1.217456 -20.995539 # C
696 1 -15.245470 -4.896247 22.533789 # C
697 1 -15.245470 4.896247 -22.533789 # C
698 1 -15.245470 4.896247 22.533789 # C
699 1 -4.896247 -22.533789 -15.245470 # C
700 1 -4.896247 -22.533789 15.245470 # C
701 1 -4.896247 22.533789 -15.245470 # C
702 1 -4.896247 22.533789 15.245470 # C
703 1 -22.533789 -15.245470 -4.896247 # C
704 1 -22.533789 -15.245470 4.896247 # C
705 1 -22.533789 15.245470 -4.896247 # C
706 1 -22.533789 15.245470 4.896247 # C
707 1 22.533789 -15.245470 -4.896247 # C
708 1 22.533789 -15.245470 4.896247 # C
709 1 22.533789 15.245470 -4.896247 # C
710 1 22.533789 15.245470 4.896247 # C
711 1 4.896247 -22.533789 -15.245470 # C
712 1 4.896247 -22.533789 15.245470 # C
713 1 4.896247 22.533789 -15.245470 # C
714 1 4.896247 22.533789 15.245470 # C
715 1 15.245470 -4.896247 -22.533789 # C
716 1 15.245470 -4.896247 22.533789 # C
717 1 15.245470 4.896247 -22.533789 # C
718 1 -15.245470 -4.896247 -22.533789 # C
719 1 -20.970036 -1.226095 17.128616 # C
720 1 -20.970036 1.226095 -17.128616 # C
721 1 -20.970036 1.226095 17.128616 # C
722 1 -1.226095 -17.128616 -20.970036 # C
723 1 -1.226095 -17.128616 20.970036 # C
724 1 -1.226095 17.128616 -20.970036 # C
725 1 -1.226095 17.128616 20.970036 # C
726 1 -17.128616 -20.970036 -1.226095 # C
727 1 -17.128616 -20.970036 1.226095 # C
728 1 -17.128616 20.970036 -1.226095 # C
729 1 -17.128616 20.970036 1.226095 # C
730 1 17.128616 -20.970036 -1.226095 # C
731 1 17.128616 -20.970036 1.226095 # C
732 1 17.128616 20.970036 -1.226095 # C
733 1 17.128616 20.970036 1.226095 # C
734 1 1.226095 -17.128616 -20.970036 # C