LAMMPS data file. CGCMM style. atom_style atomic generated by VMD/TopoTools v1.7 on Thu Dec 14 15:32:53 EST 2017
 96 atoms
 0 bonds
 0 angles
 0 dihedrals
 0 impropers
 1 atom types
 0 bond types
 0 angle types
 0 dihedral types
 0 improper types
 0.000000 11.500000  xlo xhi
 0.000000 11.500000  ylo yhi
 0.000000 11.500000  zlo zhi

# Pair Coeffs
#
# 1  C

 Masses

 1 12.010700 # C

 Atoms # atomic

1 1 7.040743 3.164885 8.767679 # C
2 1 3.164885 7.040743 8.767679 # C
3 1 3.164885 3.164885 1.437947 # C
4 1 7.040743 7.040743 1.437947 # C
5 1 8.767679 7.040743 3.164885 # C
6 1 8.767679 3.164885 7.040743 # C
7 1 1.437947 3.164885 3.164885 # C
8 1 1.437947 7.040743 7.040743 # C
9 1 3.164885 8.767679 7.040743 # C
10 1 7.040743 8.767679 3.164885 # C
11 1 3.164885 1.437947 3.164885 # C
12 1 7.040743 1.437947 7.040743 # C
13 1 8.268698 1.937929 6.540761 # C
14 1 1.937929 8.268698 6.540761 # C
15 1 8.268698 8.268698 3.664866 # C
16 1 1.937929 1.937929 3.664866 # C
17 1 1.937929 3.664866 1.937929 # C
18 1 8.268698 3.664866 8.268698 # C
19 1 8.268698 6.540761 1.937929 # C
20 1 1.937929 6.540761 8.268698 # C
21 1 3.664866 8.268698 8.268698 # C
22 1 3.664866 1.937929 1.937929 # C
23 1 6.540761 8.268698 1.937929 # C
24 1 6.540761 1.937929 8.268698 # C
25 1 0.000000 6.919748 5.102814 # C
26 1 10.206000 6.919748 5.102814 # C
27 1 0.000000 3.286880 5.102814 # C
28 1 10.206000 3.286880 5.102814 # C
29 1 5.102814 0.000000 6.919748 # C
30 1 5.102814 10.206000 6.919748 # C
31 1 5.102814 0.000000 3.286880 # C
32 1 5.102814 10.206000 3.286880 # C
33 1 6.919748 5.102814 0.000000 # C
34 1 6.919748 5.102814 10.206000 # C
35 1 3.286880 5.102814 0.000000 # C
36 1 3.286880 5.102814 10.206000 # C
37 1 1.815934 5.102814 0.000000 # C
38 1 1.815934 5.102814 10.206000 # C
39 1 8.389694 5.102814 0.000000 # C
40 1 8.389694 5.102814 10.206000 # C
41 1 5.102814 0.000000 8.389694 # C
42 1 5.102814 10.206000 8.389694 # C
43 1 5.102814 0.000000 1.815934 # C
44 1 5.102814 10.206000 1.815934 # C
45 1 0.000000 1.815934 5.102814 # C
46 1 10.206000 1.815934 5.102814 # C
47 1 0.000000 8.389694 5.102814 # C
48 1 10.206000 8.389694 5.102814 # C
49 1 5.102814 8.389694 0.000000 # C
50 1 5.102814 8.389694 10.206000 # C
51 1 5.102814 1.815934 0.000000 # C
52 1 5.102814 1.815934 10.206000 # C
53 1 0.000000 5.102814 8.389694 # C
54 1 10.206000 5.102814 8.389694 # C
55 1 0.000000 5.102814 1.815934 # C
56 1 10.206000 5.102814 1.815934 # C
57 1 8.389694 0.000000 5.102814 # C
58 1 8.389694 10.206000 5.102814 # C
59 1 1.815934 0.000000 5.102814 # C
60 1 1.815934 10.206000 5.102814 # C
61 1 3.286880 0.000000 5.102814 # C
62 1 3.286880 10.206000 5.102814 # C
63 1 6.919748 0.000000 5.102814 # C
64 1 6.919748 10.206000 5.102814 # C
65 1 0.000000 5.102814 6.919748 # C
66 1 10.206000 5.102814 6.919748 # C
67 1 0.000000 5.102814 3.286880 # C
68 1 10.206000 5.102814 3.286880 # C
69 1 5.102814 3.286880 0.000000 # C
70 1 5.102814 3.286880 10.206000 # C
71 1 5.102814 6.919748 0.000000 # C
72 1 5.102814 6.919748 10.206000 # C
73 1 1.192956 9.012671 5.586796 # C
74 1 9.012671 1.192956 5.586796 # C
75 1 9.012671 9.012671 4.619831 # C
76 1 1.192956 1.192956 4.619831 # C
77 1 5.586796 1.192956 9.012671 # C
78 1 5.586796 9.012671 1.192956 # C
79 1 4.619831 9.012671 9.012671 # C
80 1 4.619831 1.192956 1.192956 # C
81 1 9.012671 5.586796 1.192956 # C
82 1 1.192956 5.586796 9.012671 # C
83 1 9.012671 4.619831 9.012671 # C
84 1 1.192956 4.619831 1.192956 # C
85 1 3.909857 6.296770 9.722645 # C
86 1 6.296770 3.909857 9.722645 # C
87 1 3.909857 3.909857 0.482982 # C
88 1 6.296770 6.296770 0.482982 # C
89 1 6.296770 0.482982 6.296770 # C
90 1 3.909857 0.482982 3.909857 # C
91 1 3.909857 9.722645 6.296770 # C
92 1 6.296770 9.722645 3.909857 # C
93 1 0.482982 3.909857 3.909857 # C
94 1 0.482982 6.296770 6.296770 # C
95 1 9.722645 3.909857 6.296770 # C
96 1 9.722645 6.296770 3.909857 # C

