LAMMPS data file. CGCMM style. atom_style atomic generated by VMD/TopoTools v1.6 on Tue May 03 11:35:05 EDT 2016
 768 atoms
 0 bonds
 0 angles
 0 dihedrals
 0 impropers
 20 atom types
 0 bond types
 0 angle types
 0 dihedral types
 0 improper types
 -14.510000 14.510000  xlo xhi
 -14.510000 14.510000  ylo yhi
 -14.510000 14.510000  zlo zhi

# Pair Coeffs
#
# 1  C1
# 2  C10
# 3  C12
# 4  C2
# 5  C25
# 6  C27
# 7  C28
# 8  C30
# 9  C43
# 10  C44
# 11  C45
# 12  C49
# 13  C51
# 14  C52
# 15  C53
# 16  C54
# 17  C58
# 18  C60
# 19  C7
# 20  C9

 Masses

 1 12.010700 # C1
 2 12.010700 # C10
 3 12.010700 # C12
 4 12.010700 # C2
 5 12.010700 # C25
 6 12.010700 # C27
 7 12.010700 # C28
 8 12.010700 # C30
 9 12.010700 # C43
 10 12.010700 # C44
 11 12.010700 # C45
 12 12.010700 # C49
 13 12.010700 # C51
 14 12.010700 # C52
 15 12.010700 # C53
 16 12.010700 # C54
 17 12.010700 # C58
 18 12.010700 # C60
 19 12.010700 # C7
 20 12.010700 # C9

 Atoms

1 1 4.921000 4.921000 11.862000 # C1
2 1 -4.921000 -4.921000 11.862000 # C1
3 1 -4.921000 4.921000 -11.862000 # C1
4 1 4.921000 -4.921000 -11.862000 # C1
5 1 11.862000 4.921000 4.921000 # C1
6 1 11.862000 -4.921000 -4.921000 # C1
7 1 -11.862000 -4.921000 4.921000 # C1
8 1 -11.862000 4.921000 -4.921000 # C1
9 1 4.921000 11.862000 4.921000 # C1
10 1 -4.921000 11.862000 -4.921000 # C1
11 1 4.921000 -11.862000 -4.921000 # C1
12 1 -4.921000 -11.862000 4.921000 # C1
13 1 4.921000 4.921000 -11.862000 # C1
14 1 -4.921000 -4.921000 -11.862000 # C1
15 1 4.921000 -4.921000 11.862000 # C1
16 1 -4.921000 4.921000 11.862000 # C1
17 1 4.921000 11.862000 -4.921000 # C1
18 1 -4.921000 11.862000 4.921000 # C1
19 1 -4.921000 -11.862000 -4.921000 # C1
20 1 4.921000 -11.862000 4.921000 # C1
21 1 11.862000 4.921000 -4.921000 # C1
22 1 11.862000 -4.921000 4.921000 # C1
23 1 -11.862000 4.921000 4.921000 # C1
24 1 -11.862000 -4.921000 -4.921000 # C1
25 4 9.589000 2.648000 9.589000 # C2
26 4 -9.589000 -2.648000 9.589000 # C2
27 4 -9.589000 2.648000 -9.589000 # C2
28 4 9.589000 -2.648000 -9.589000 # C2
29 4 9.589000 9.589000 2.648000 # C2
30 4 9.589000 -9.589000 -2.648000 # C2
31 4 -9.589000 -9.589000 2.648000 # C2
32 4 -9.589000 9.589000 -2.648000 # C2
33 4 2.648000 9.589000 9.589000 # C2
34 4 -2.648000 9.589000 -9.589000 # C2
35 4 2.648000 -9.589000 -9.589000 # C2
36 4 -2.648000 -9.589000 9.589000 # C2
37 4 2.648000 9.589000 -9.589000 # C2
38 4 -2.648000 -9.589000 -9.589000 # C2
39 4 2.648000 -9.589000 9.589000 # C2
40 4 -2.648000 9.589000 9.589000 # C2
41 4 9.589000 9.589000 -2.648000 # C2
42 4 -9.589000 9.589000 2.648000 # C2
43 4 -9.589000 -9.589000 -2.648000 # C2
44 4 9.589000 -9.589000 2.648000 # C2
45 4 9.589000 2.648000 -9.589000 # C2
46 4 9.589000 -2.648000 9.589000 # C2
47 4 -9.589000 2.648000 9.589000 # C2
48 4 -9.589000 -2.648000 -9.589000 # C2
49 19 2.698000 6.212000 13.143000 # C7
50 19 -2.698000 -6.212000 13.143000 # C7
51 19 -2.698000 6.212000 -13.143000 # C7
52 19 2.698000 -6.212000 -13.143000 # C7
53 19 13.143000 2.698000 6.212000 # C7
54 19 13.143000 -2.698000 -6.212000 # C7
55 19 -13.143000 -2.698000 6.212000 # C7
56 19 -13.143000 2.698000 -6.212000 # C7
57 19 6.212000 13.143000 2.698000 # C7
58 19 -6.212000 13.143000 -2.698000 # C7
59 19 6.212000 -13.143000 -2.698000 # C7
60 19 -6.212000 -13.143000 2.698000 # C7
61 19 6.212000 2.698000 -13.143000 # C7
62 19 -6.212000 -2.698000 -13.143000 # C7
63 19 6.212000 -2.698000 13.143000 # C7
64 19 -6.212000 2.698000 13.143000 # C7
65 19 2.698000 13.143000 -6.212000 # C7
66 19 -2.698000 13.143000 6.212000 # C7
67 19 -2.698000 -13.143000 -6.212000 # C7
68 19 2.698000 -13.143000 6.212000 # C7
69 19 13.143000 6.212000 -2.698000 # C7
70 19 13.143000 -6.212000 2.698000 # C7
71 19 -13.143000 6.212000 2.698000 # C7
72 19 -13.143000 -6.212000 -2.698000 # C7
73 19 -2.698000 -6.212000 -13.143000 # C7
74 19 2.698000 6.212000 -13.143000 # C7
75 19 2.698000 -6.212000 13.143000 # C7
76 19 -2.698000 6.212000 13.143000 # C7
77 19 -13.143000 -2.698000 -6.212000 # C7
78 19 -13.143000 2.698000 6.212000 # C7
79 19 13.143000 2.698000 -6.212000 # C7
80 19 13.143000 -2.698000 6.212000 # C7
81 19 -6.212000 -13.143000 -2.698000 # C7
82 19 6.212000 -13.143000 2.698000 # C7
83 19 -6.212000 13.143000 2.698000 # C7
84 19 6.212000 13.143000 -2.698000 # C7
85 19 -6.212000 -2.698000 13.143000 # C7
86 19 6.212000 2.698000 13.143000 # C7
87 19 -6.212000 2.698000 -13.143000 # C7
88 19 6.212000 -2.698000 -13.143000 # C7
89 19 -2.698000 -13.143000 6.212000 # C7
90 19 2.698000 -13.143000 -6.212000 # C7
91 19 2.698000 13.143000 6.212000 # C7
92 19 -2.698000 13.143000 -6.212000 # C7
93 19 -13.143000 -6.212000 2.698000 # C7
94 19 -13.143000 6.212000 -2.698000 # C7
95 19 13.143000 -6.212000 -2.698000 # C7
96 19 13.143000 6.212000 2.698000 # C7
97 20 6.080000 6.080000 9.559000 # C9
98 20 -6.080000 -6.080000 9.559000 # C9
99 20 -6.080000 6.080000 -9.559000 # C9
100 20 6.080000 -6.080000 -9.559000 # C9
101 20 9.559000 6.080000 6.080000 # C9
102 20 9.559000 -6.080000 -6.080000 # C9
103 20 -9.559000 -6.080000 6.080000 # C9
104 20 -9.559000 6.080000 -6.080000 # C9
105 20 6.080000 9.559000 6.080000 # C9
106 20 -6.080000 9.559000 -6.080000 # C9
107 20 6.080000 -9.559000 -6.080000 # C9
108 20 -6.080000 -9.559000 6.080000 # C9
109 20 6.080000 6.080000 -9.559000 # C9
110 20 -6.080000 -6.080000 -9.559000 # C9
111 20 6.080000 -6.080000 9.559000 # C9
112 20 -6.080000 6.080000 9.559000 # C9
113 20 6.080000 9.559000 -6.080000 # C9
114 20 -6.080000 9.559000 6.080000 # C9
115 20 -6.080000 -9.559000 -6.080000 # C9
116 20 6.080000 -9.559000 6.080000 # C9
117 20 9.559000 6.080000 -6.080000 # C9
118 20 9.559000 -6.080000 6.080000 # C9
119 20 -9.559000 6.080000 6.080000 # C9
120 20 -9.559000 -6.080000 -6.080000 # C9
121 2 8.298000 1.367000 11.811000 # C10
122 2 -8.298000 -1.367000 11.811000 # C10
123 2 -8.298000 1.367000 -11.811000 # C10
124 2 8.298000 -1.367000 -11.811000 # C10
125 2 11.811000 8.298000 1.367000 # C10
126 2 11.811000 -8.298000 -1.367000 # C10
127 2 -11.811000 -8.298000 1.367000 # C10
128 2 -11.811000 8.298000 -1.367000 # C10
129 2 1.367000 11.811000 8.298000 # C10
130 2 -1.367000 11.811000 -8.298000 # C10
131 2 1.367000 -11.811000 -8.298000 # C10
132 2 -1.367000 -11.811000 8.298000 # C10
133 2 1.367000 8.298000 -11.811000 # C10
134 2 -1.367000 -8.298000 -11.811000 # C10
135 2 1.367000 -8.298000 11.811000 # C10
136 2 -1.367000 8.298000 11.811000 # C10
137 2 8.298000 11.811000 -1.367000 # C10
138 2 -8.298000 11.811000 1.367000 # C10
139 2 -8.298000 -11.811000 -1.367000 # C10
140 2 8.298000 -11.811000 1.367000 # C10
141 2 11.811000 1.367000 -8.298000 # C10
142 2 11.811000 -1.367000 8.298000 # C10
143 2 -11.811000 1.367000 8.298000 # C10
144 2 -11.811000 -1.367000 -8.298000 # C10
145 2 -8.298000 -1.367000 -11.811000 # C10
146 2 8.298000 1.367000 -11.811000 # C10
147 2 8.298000 -1.367000 11.811000 # C10
148 2 -8.298000 1.367000 11.811000 # C10
149 2 -11.811000 -8.298000 -1.367000 # C10
150 2 -11.811000 8.298000 1.367000 # C10
151 2 11.811000 8.298000 -1.367000 # C10
152 2 11.811000 -8.298000 1.367000 # C10
153 2 -1.367000 -11.811000 -8.298000 # C10
154 2 1.367000 -11.811000 8.298000 # C10
155 2 -1.367000 11.811000 8.298000 # C10
156 2 1.367000 11.811000 -8.298000 # C10
157 2 -1.367000 -8.298000 11.811000 # C10
158 2 1.367000 8.298000 11.811000 # C10
159 2 -1.367000 8.298000 -11.811000 # C10
160 2 1.367000 -8.298000 -11.811000 # C10
161 2 -8.298000 -11.811000 1.367000 # C10
162 2 8.298000 -11.811000 -1.367000 # C10
163 2 8.298000 11.811000 1.367000 # C10
164 2 -8.298000 11.811000 -1.367000 # C10
165 2 -11.811000 -1.367000 8.298000 # C10
166 2 -11.811000 1.367000 -8.298000 # C10
167 2 11.811000 -1.367000 -8.298000 # C10
168 2 11.811000 1.367000 8.298000 # C10
169 3 8.430000 4.951000 8.430000 # C12
170 3 -8.430000 -4.951000 8.430000 # C12
171 3 -8.430000 4.951000 -8.430000 # C12
172 3 8.430000 -4.951000 -8.430000 # C12
173 3 8.430000 8.430000 4.951000 # C12
174 3 8.430000 -8.430000 -4.951000 # C12
175 3 -8.430000 -8.430000 4.951000 # C12
176 3 -8.430000 8.430000 -4.951000 # C12
177 3 4.951000 8.430000 8.430000 # C12
178 3 -4.951000 8.430000 -8.430000 # C12
179 3 4.951000 -8.430000 -8.430000 # C12
180 3 -4.951000 -8.430000 8.430000 # C12
181 3 4.951000 8.430000 -8.430000 # C12
182 3 -4.951000 -8.430000 -8.430000 # C12
183 3 4.951000 -8.430000 8.430000 # C12
184 3 -4.951000 8.430000 8.430000 # C12
185 3 8.430000 8.430000 -4.951000 # C12
186 3 -8.430000 8.430000 4.951000 # C12
187 3 -8.430000 -8.430000 -4.951000 # C12
188 3 8.430000 -8.430000 4.951000 # C12
189 3 8.430000 4.951000 -8.430000 # C12
190 3 8.430000 -4.951000 8.430000 # C12
191 3 -8.430000 4.951000 8.430000 # C12
192 3 -8.430000 -4.951000 -8.430000 # C12
193 5 6.073000 4.326000 11.285000 # C25
194 5 -6.073000 -4.326000 11.285000 # C25
195 5 -6.073000 4.326000 -11.285000 # C25
196 5 6.073000 -4.326000 -11.285000 # C25
197 5 11.285000 6.073000 4.326000 # C25
198 5 11.285000 -6.073000 -4.326000 # C25
199 5 -11.285000 -6.073000 4.326000 # C25
200 5 -11.285000 6.073000 -4.326000 # C25
201 5 4.326000 11.285000 6.073000 # C25
202 5 -4.326000 11.285000 -6.073000 # C25
203 5 4.326000 -11.285000 -6.073000 # C25
204 5 -4.326000 -11.285000 6.073000 # C25
205 5 4.326000 6.073000 -11.285000 # C25
206 5 -4.326000 -6.073000 -11.285000 # C25
207 5 4.326000 -6.073000 11.285000 # C25
208 5 -4.326000 6.073000 11.285000 # C25
209 5 6.073000 11.285000 -4.326000 # C25
210 5 -6.073000 11.285000 4.326000 # C25
211 5 -6.073000 -11.285000 -4.326000 # C25
212 5 6.073000 -11.285000 4.326000 # C25
213 5 11.285000 4.326000 -6.073000 # C25
214 5 11.285000 -4.326000 6.073000 # C25
215 5 -11.285000 4.326000 6.073000 # C25
216 5 -11.285000 -4.326000 -6.073000 # C25
217 5 -6.073000 -4.326000 -11.285000 # C25
218 5 6.073000 4.326000 -11.285000 # C25
219 5 6.073000 -4.326000 11.285000 # C25
220 5 -6.073000 4.326000 11.285000 # C25
221 5 -11.285000 -6.073000 -4.326000 # C25
222 5 -11.285000 6.073000 4.326000 # C25
223 5 11.285000 6.073000 -4.326000 # C25
224 5 11.285000 -6.073000 4.326000 # C25
225 5 -4.326000 -11.285000 -6.073000 # C25
226 5 4.326000 -11.285000 6.073000 # C25
227 5 -4.326000 11.285000 6.073000 # C25
228 5 4.326000 11.285000 -6.073000 # C25
229 5 -4.326000 -6.073000 11.285000 # C25
230 5 4.326000 6.073000 11.285000 # C25
231 5 -4.326000 6.073000 -11.285000 # C25
232 5 4.326000 -6.073000 -11.285000 # C25
233 5 -6.073000 -11.285000 4.326000 # C25
234 5 6.073000 -11.285000 -4.326000 # C25
235 5 6.073000 11.285000 4.326000 # C25
236 5 -6.073000 11.285000 -4.326000 # C25
237 5 -11.285000 -4.326000 6.073000 # C25
238 5 -11.285000 4.326000 -6.073000 # C25
239 5 11.285000 -4.326000 -6.073000 # C25
240 5 11.285000 4.326000 6.073000 # C25
241 6 4.469000 4.469000 13.126000 # C27
242 6 -4.469000 -4.469000 13.126000 # C27
243 6 -4.469000 4.469000 -13.126000 # C27
244 6 4.469000 -4.469000 -13.126000 # C27
245 6 13.126000 4.469000 4.469000 # C27
246 6 13.126000 -4.469000 -4.469000 # C27
247 6 -13.126000 -4.469000 4.469000 # C27
248 6 -13.126000 4.469000 -4.469000 # C27
249 6 4.469000 13.126000 4.469000 # C27
250 6 -4.469000 13.126000 -4.469000 # C27
251 6 4.469000 -13.126000 -4.469000 # C27
252 6 -4.469000 -13.126000 4.469000 # C27
253 6 4.469000 4.469000 -13.126000 # C27
254 6 -4.469000 -4.469000 -13.126000 # C27
255 6 4.469000 -4.469000 13.126000 # C27
256 6 -4.469000 4.469000 13.126000 # C27
257 6 4.469000 13.126000 -4.469000 # C27
258 6 -4.469000 13.126000 4.469000 # C27
259 6 -4.469000 -13.126000 -4.469000 # C27
260 6 4.469000 -13.126000 4.469000 # C27
261 6 13.126000 4.469000 -4.469000 # C27
262 6 13.126000 -4.469000 4.469000 # C27
263 6 -13.126000 4.469000 4.469000 # C27
264 6 -13.126000 -4.469000 -4.469000 # C27
265 7 10.184000 3.224000 8.437000 # C28
266 7 -10.184000 -3.224000 8.437000 # C28
267 7 -10.184000 3.224000 -8.437000 # C28
268 7 10.184000 -3.224000 -8.437000 # C28
269 7 8.437000 10.184000 3.224000 # C28
270 7 8.437000 -10.184000 -3.224000 # C28
271 7 -8.437000 -10.184000 3.224000 # C28
272 7 -8.437000 10.184000 -3.224000 # C28
273 7 3.224000 8.437000 10.184000 # C28
274 7 -3.224000 8.437000 -10.184000 # C28
275 7 3.224000 -8.437000 -10.184000 # C28
276 7 -3.224000 -8.437000 10.184000 # C28
277 7 3.224000 10.184000 -8.437000 # C28
278 7 -3.224000 -10.184000 -8.437000 # C28
279 7 3.224000 -10.184000 8.437000 # C28
280 7 -3.224000 10.184000 8.437000 # C28
281 7 10.184000 8.437000 -3.224000 # C28
282 7 -10.184000 8.437000 3.224000 # C28
283 7 -10.184000 -8.437000 -3.224000 # C28
284 7 10.184000 -8.437000 3.224000 # C28
285 7 8.437000 3.224000 -10.184000 # C28
286 7 8.437000 -3.224000 10.184000 # C28
287 7 -8.437000 3.224000 10.184000 # C28
288 7 -8.437000 -3.224000 -10.184000 # C28
289 7 -10.184000 -3.224000 -8.437000 # C28
290 7 10.184000 3.224000 -8.437000 # C28
291 7 10.184000 -3.224000 8.437000 # C28
292 7 -10.184000 3.224000 8.437000 # C28
293 7 -8.437000 -10.184000 -3.224000 # C28
294 7 -8.437000 10.184000 3.224000 # C28
295 7 8.437000 10.184000 -3.224000 # C28
296 7 8.437000 -10.184000 3.224000 # C28
297 7 -3.224000 -8.437000 -10.184000 # C28
298 7 3.224000 -8.437000 10.184000 # C28
299 7 -3.224000 8.437000 10.184000 # C28
300 7 3.224000 8.437000 -10.184000 # C28
301 7 -3.224000 -10.184000 8.437000 # C28
302 7 3.224000 10.184000 8.437000 # C28
303 7 -3.224000 10.184000 -8.437000 # C28
304 7 3.224000 -10.184000 -8.437000 # C28
305 7 -10.184000 -8.437000 3.224000 # C28
306 7 10.184000 -8.437000 -3.224000 # C28
307 7 10.184000 8.437000 3.224000 # C28
308 7 -10.184000 8.437000 -3.224000 # C28
309 7 -8.437000 -3.224000 10.184000 # C28
310 7 -8.437000 3.224000 -10.184000 # C28
311 7 8.437000 -3.224000 -10.184000 # C28
312 7 8.437000 3.224000 10.184000 # C28
313 8 10.041000 1.384000 10.041000 # C30
314 8 -10.041000 -1.384000 10.041000 # C30
315 8 -10.041000 1.384000 -10.041000 # C30
316 8 10.041000 -1.384000 -10.041000 # C30
317 8 10.041000 10.041000 1.384000 # C30
318 8 10.041000 -10.041000 -1.384000 # C30
319 8 -10.041000 -10.041000 1.384000 # C30
320 8 -10.041000 10.041000 -1.384000 # C30
321 8 1.384000 10.041000 10.041000 # C30
322 8 -1.384000 10.041000 -10.041000 # C30
323 8 1.384000 -10.041000 -10.041000 # C30
324 8 -1.384000 -10.041000 10.041000 # C30
325 8 1.384000 10.041000 -10.041000 # C30
326 8 -1.384000 -10.041000 -10.041000 # C30
327 8 1.384000 -10.041000 10.041000 # C30
328 8 -1.384000 10.041000 10.041000 # C30
329 8 10.041000 10.041000 -1.384000 # C30
330 8 -10.041000 10.041000 1.384000 # C30
331 8 -10.041000 -10.041000 -1.384000 # C30
332 8 10.041000 -10.041000 1.384000 # C30
333 8 10.041000 1.384000 -10.041000 # C30
334 8 10.041000 -1.384000 10.041000 # C30
335 8 -10.041000 1.384000 10.041000 # C30
336 8 -10.041000 -1.384000 -10.041000 # C30
337 9 1.587000 6.871000 13.792000 # C43
338 9 -1.587000 -6.871000 13.792000 # C43
339 9 -1.587000 6.871000 -13.792000 # C43
340 9 1.587000 -6.871000 -13.792000 # C43
341 9 13.792000 1.587000 6.871000 # C43
342 9 13.792000 -1.587000 -6.871000 # C43
343 9 -13.792000 -1.587000 6.871000 # C43
344 9 -13.792000 1.587000 -6.871000 # C43
345 9 6.871000 13.792000 1.587000 # C43
346 9 -6.871000 13.792000 -1.587000 # C43
347 9 6.871000 -13.792000 -1.587000 # C43
348 9 -6.871000 -13.792000 1.587000 # C43
349 9 6.871000 1.587000 -13.792000 # C43
350 9 -6.871000 -1.587000 -13.792000 # C43
351 9 6.871000 -1.587000 13.792000 # C43
352 9 -6.871000 1.587000 13.792000 # C43
353 9 1.587000 13.792000 -6.871000 # C43
354 9 -1.587000 13.792000 6.871000 # C43
355 9 -1.587000 -13.792000 -6.871000 # C43
356 9 1.587000 -13.792000 6.871000 # C43
357 9 13.792000 6.871000 -1.587000 # C43
358 9 13.792000 -6.871000 1.587000 # C43
359 9 -13.792000 6.871000 1.587000 # C43
360 9 -13.792000 -6.871000 -1.587000 # C43
361 9 -1.587000 -6.871000 -13.792000 # C43
362 9 1.587000 6.871000 -13.792000 # C43
363 9 1.587000 -6.871000 13.792000 # C43
364 9 -1.587000 6.871000 13.792000 # C43
365 9 -13.792000 -1.587000 -6.871000 # C43
366 9 -13.792000 1.587000 6.871000 # C43
367 9 13.792000 1.587000 -6.871000 # C43
368 9 13.792000 -1.587000 6.871000 # C43
369 9 -6.871000 -13.792000 -1.587000 # C43
370 9 6.871000 -13.792000 1.587000 # C43
371 9 -6.871000 13.792000 1.587000 # C43
372 9 6.871000 13.792000 -1.587000 # C43
373 9 -6.871000 -1.587000 13.792000 # C43
374 9 6.871000 1.587000 13.792000 # C43
375 9 -6.871000 1.587000 -13.792000 # C43
376 9 6.871000 -1.587000 -13.792000 # C43
377 9 -1.587000 -13.792000 6.871000 # C43
378 9 1.587000 -13.792000 -6.871000 # C43
379 9 1.587000 13.792000 6.871000 # C43
380 9 -1.587000 13.792000 -6.871000 # C43
381 9 -13.792000 -6.871000 1.587000 # C43
382 9 -13.792000 6.871000 -1.587000 # C43
383 9 13.792000 -6.871000 -1.587000 # C43
384 9 13.792000 6.871000 1.587000 # C43
385 10 3.465000 5.214000 13.804000 # C44
386 10 -3.465000 -5.214000 13.804000 # C44
387 10 -3.465000 5.214000 -13.804000 # C44
388 10 3.465000 -5.214000 -13.804000 # C44
389 10 13.804000 3.465000 5.214000 # C44
390 10 13.804000 -3.465000 -5.214000 # C44
391 10 -13.804000 -3.465000 5.214000 # C44
392 10 -13.804000 3.465000 -5.214000 # C44
393 10 5.214000 13.804000 3.465000 # C44
394 10 -5.214000 13.804000 -3.465000 # C44
395 10 5.214000 -13.804000 -3.465000 # C44
396 10 -5.214000 -13.804000 3.465000 # C44
397 10 5.214000 3.465000 -13.804000 # C44
398 10 -5.214000 -3.465000 -13.804000 # C44
399 10 5.214000 -3.465000 13.804000 # C44
400 10 -5.214000 3.465000 13.804000 # C44
401 10 3.465000 13.804000 -5.214000 # C44
402 10 -3.465000 13.804000 5.214000 # C44
403 10 -3.465000 -13.804000 -5.214000 # C44
404 10 3.465000 -13.804000 5.214000 # C44
405 10 13.804000 5.214000 -3.465000 # C44
406 10 13.804000 -5.214000 3.465000 # C44
407 10 -13.804000 5.214000 3.465000 # C44
408 10 -13.804000 -5.214000 -3.465000 # C44
409 10 -3.465000 -5.214000 -13.804000 # C44
410 10 3.465000 5.214000 -13.804000 # C44
411 10 3.465000 -5.214000 13.804000 # C44
412 10 -3.465000 5.214000 13.804000 # C44
413 10 -13.804000 -3.465000 -5.214000 # C44
414 10 -13.804000 3.465000 5.214000 # C44
415 10 13.804000 3.465000 -5.214000 # C44
416 10 13.804000 -3.465000 5.214000 # C44
417 10 -5.214000 -13.804000 -3.465000 # C44
418 10 5.214000 -13.804000 3.465000 # C44
419 10 -5.214000 13.804000 3.465000 # C44
420 10 5.214000 13.804000 -3.465000 # C44
421 10 -5.214000 -3.465000 13.804000 # C44
422 10 5.214000 3.465000 13.804000 # C44
423 10 -5.214000 3.465000 -13.804000 # C44
424 10 5.214000 -3.465000 -13.804000 # C44
425 10 -3.465000 -13.804000 5.214000 # C44
426 10 3.465000 -13.804000 -5.214000 # C44
427 10 3.465000 13.804000 5.214000 # C44
428 10 -3.465000 13.804000 -5.214000 # C44
429 10 -13.804000 -5.214000 3.465000 # C44
430 10 -13.804000 5.214000 -3.465000 # C44
431 10 13.804000 -5.214000 -3.465000 # C44
432 10 13.804000 5.214000 3.465000 # C44
433 11 3.194000 6.679000 11.896000 # C45
434 11 -3.194000 -6.679000 11.896000 # C45
435 11 -3.194000 6.679000 -11.896000 # C45
436 11 3.194000 -6.679000 -11.896000 # C45
437 11 11.896000 3.194000 6.679000 # C45
438 11 11.896000 -3.194000 -6.679000 # C45
439 11 -11.896000 -3.194000 6.679000 # C45
440 11 -11.896000 3.194000 -6.679000 # C45
441 11 6.679000 11.896000 3.194000 # C45
442 11 -6.679000 11.896000 -3.194000 # C45
443 11 6.679000 -11.896000 -3.194000 # C45
444 11 -6.679000 -11.896000 3.194000 # C45
445 11 6.679000 3.194000 -11.896000 # C45
446 11 -6.679000 -3.194000 -11.896000 # C45
447 11 6.679000 -3.194000 11.896000 # C45
448 11 -6.679000 3.194000 11.896000 # C45
449 11 3.194000 11.896000 -6.679000 # C45
450 11 -3.194000 11.896000 6.679000 # C45
451 11 -3.194000 -11.896000 -6.679000 # C45
452 11 3.194000 -11.896000 6.679000 # C45
453 11 11.896000 6.679000 -3.194000 # C45
454 11 11.896000 -6.679000 3.194000 # C45
455 11 -11.896000 6.679000 3.194000 # C45
456 11 -11.896000 -6.679000 -3.194000 # C45
457 11 -3.194000 -6.679000 -11.896000 # C45
458 11 3.194000 6.679000 -11.896000 # C45
459 11 3.194000 -6.679000 11.896000 # C45
460 11 -3.194000 6.679000 11.896000 # C45
461 11 -11.896000 -3.194000 -6.679000 # C45
462 11 -11.896000 3.194000 6.679000 # C45
463 11 11.896000 3.194000 -6.679000 # C45
464 11 11.896000 -3.194000 6.679000 # C45
465 11 -6.679000 -11.896000 -3.194000 # C45
466 11 6.679000 -11.896000 3.194000 # C45
467 11 -6.679000 11.896000 3.194000 # C45
468 11 6.679000 11.896000 -3.194000 # C45
469 11 -6.679000 -3.194000 11.896000 # C45
470 11 6.679000 3.194000 11.896000 # C45
471 11 -6.679000 3.194000 -11.896000 # C45
472 11 6.679000 -3.194000 -11.896000 # C45
473 11 -3.194000 -11.896000 6.679000 # C45
474 11 3.194000 -11.896000 -6.679000 # C45
475 11 3.194000 11.896000 6.679000 # C45
476 11 -3.194000 11.896000 -6.679000 # C45
477 11 -11.896000 -6.679000 3.194000 # C45
478 11 -11.896000 6.679000 -3.194000 # C45
479 11 11.896000 -6.679000 -3.194000 # C45
480 11 11.896000 6.679000 3.194000 # C45
481 12 4.920000 6.661000 10.138000 # C49
482 12 -4.920000 -6.661000 10.138000 # C49
483 12 -4.920000 6.661000 -10.138000 # C49
484 12 4.920000 -6.661000 -10.138000 # C49
485 12 10.138000 4.920000 6.661000 # C49
486 12 10.138000 -4.920000 -6.661000 # C49
487 12 -10.138000 -4.920000 6.661000 # C49
488 12 -10.138000 4.920000 -6.661000 # C49
489 12 6.661000 10.138000 4.920000 # C49
490 12 -6.661000 10.138000 -4.920000 # C49
491 12 6.661000 -10.138000 -4.920000 # C49
492 12 -6.661000 -10.138000 4.920000 # C49
493 12 6.661000 4.920000 -10.138000 # C49
494 12 -6.661000 -4.920000 -10.138000 # C49
495 12 6.661000 -4.920000 10.138000 # C49
496 12 -6.661000 4.920000 10.138000 # C49
497 12 4.920000 10.138000 -6.661000 # C49
498 12 -4.920000 10.138000 6.661000 # C49
499 12 -4.920000 -10.138000 -6.661000 # C49
500 12 4.920000 -10.138000 6.661000 # C49
501 12 10.138000 6.661000 -4.920000 # C49
502 12 10.138000 -6.661000 4.920000 # C49
503 12 -10.138000 6.661000 4.920000 # C49
504 12 -10.138000 -6.661000 -4.920000 # C49
505 12 -4.920000 -6.661000 -10.138000 # C49
506 12 4.920000 6.661000 -10.138000 # C49
507 12 4.920000 -6.661000 10.138000 # C49
508 12 -4.920000 6.661000 10.138000 # C49
509 12 -10.138000 -4.920000 -6.661000 # C49
510 12 -10.138000 4.920000 6.661000 # C49
511 12 10.138000 4.920000 -6.661000 # C49
512 12 10.138000 -4.920000 6.661000 # C49
513 12 -6.661000 -10.138000 -4.920000 # C49
514 12 6.661000 -10.138000 4.920000 # C49
515 12 -6.661000 10.138000 4.920000 # C49
516 12 6.661000 10.138000 -4.920000 # C49
517 12 -6.661000 -4.920000 10.138000 # C49
518 12 6.661000 4.920000 10.138000 # C49
519 12 -6.661000 4.920000 -10.138000 # C49
520 12 6.661000 -4.920000 -10.138000 # C49
521 12 -4.920000 -10.138000 6.661000 # C49
522 12 4.920000 -10.138000 -6.661000 # C49
523 12 4.920000 10.138000 6.661000 # C49
524 12 -4.920000 10.138000 -6.661000 # C49
525 12 -10.138000 -6.661000 4.920000 # C49
526 12 -10.138000 6.661000 -4.920000 # C49
527 12 10.138000 -6.661000 -4.920000 # C49
528 12 10.138000 6.661000 4.920000 # C49
529 13 6.672000 6.672000 8.412000 # C51
530 13 -6.672000 -6.672000 8.412000 # C51
531 13 -6.672000 6.672000 -8.412000 # C51
532 13 6.672000 -6.672000 -8.412000 # C51
533 13 8.412000 6.672000 6.672000 # C51
534 13 8.412000 -6.672000 -6.672000 # C51
535 13 -8.412000 -6.672000 6.672000 # C51
536 13 -8.412000 6.672000 -6.672000 # C51
537 13 6.672000 8.412000 6.672000 # C51
538 13 -6.672000 8.412000 -6.672000 # C51
539 13 6.672000 -8.412000 -6.672000 # C51
540 13 -6.672000 -8.412000 6.672000 # C51
541 13 6.672000 6.672000 -8.412000 # C51
542 13 -6.672000 -6.672000 -8.412000 # C51
543 13 6.672000 -6.672000 8.412000 # C51
544 13 -6.672000 6.672000 8.412000 # C51
545 13 6.672000 8.412000 -6.672000 # C51
546 13 -6.672000 8.412000 6.672000 # C51
547 13 -6.672000 -8.412000 -6.672000 # C51
548 13 6.672000 -8.412000 6.672000 # C51
549 13 8.412000 6.672000 -6.672000 # C51
550 13 8.412000 -6.672000 6.672000 # C51
551 13 -8.412000 6.672000 6.672000 # C51
552 13 -8.412000 -6.672000 -6.672000 # C51
553 14 7.639000 0.718000 12.923000 # C52
554 14 -7.639000 -0.718000 12.923000 # C52
555 14 -7.639000 0.718000 -12.923000 # C52
556 14 7.639000 -0.718000 -12.923000 # C52
557 14 12.923000 7.639000 0.718000 # C52
558 14 12.923000 -7.639000 -0.718000 # C52
559 14 -12.923000 -7.639000 0.718000 # C52
560 14 -12.923000 7.639000 -0.718000 # C52
561 14 0.718000 12.923000 7.639000 # C52
562 14 -0.718000 12.923000 -7.639000 # C52
563 14 0.718000 -12.923000 -7.639000 # C52
564 14 -0.718000 -12.923000 7.639000 # C52
565 14 0.718000 7.639000 -12.923000 # C52
566 14 -0.718000 -7.639000 -12.923000 # C52
567 14 0.718000 -7.639000 12.923000 # C52
568 14 -0.718000 7.639000 12.923000 # C52
569 14 7.639000 12.923000 -0.718000 # C52
570 14 -7.639000 12.923000 0.718000 # C52
571 14 -7.639000 -12.923000 -0.718000 # C52
572 14 7.639000 -12.923000 0.718000 # C52
573 14 12.923000 0.718000 -7.639000 # C52
574 14 12.923000 -0.718000 7.639000 # C52
575 14 -12.923000 0.718000 7.639000 # C52
576 14 -12.923000 -0.718000 -7.639000 # C52
577 14 -7.639000 -0.718000 -12.923000 # C52
578 14 7.639000 0.718000 -12.923000 # C52
579 14 7.639000 -0.718000 12.923000 # C52
580 14 -7.639000 0.718000 12.923000 # C52
581 14 -12.923000 -7.639000 -0.718000 # C52
582 14 -12.923000 7.639000 0.718000 # C52
583 14 12.923000 7.639000 -0.718000 # C52
584 14 12.923000 -7.639000 0.718000 # C52
585 14 -0.718000 -12.923000 -7.639000 # C52
586 14 0.718000 -12.923000 7.639000 # C52
587 14 -0.718000 12.923000 7.639000 # C52
588 14 0.718000 12.923000 -7.639000 # C52
589 14 -0.718000 -7.639000 12.923000 # C52
590 14 0.718000 7.639000 12.923000 # C52
591 14 -0.718000 7.639000 -12.923000 # C52
592 14 0.718000 -7.639000 -12.923000 # C52
593 14 -7.639000 -12.923000 0.718000 # C52
594 14 7.639000 -12.923000 -0.718000 # C52
595 14 7.639000 12.923000 0.718000 # C52
596 14 -7.639000 12.923000 -0.718000 # C52
597 14 -12.923000 -0.718000 7.639000 # C52
598 14 -12.923000 0.718000 -7.639000 # C52
599 14 12.923000 -0.718000 -7.639000 # C52
600 14 12.923000 0.718000 7.639000 # C52
601 15 9.296000 0.706000 11.045000 # C53
602 15 -9.296000 -0.706000 11.045000 # C53
603 15 -9.296000 0.706000 -11.045000 # C53
604 15 9.296000 -0.706000 -11.045000 # C53
605 15 11.045000 9.296000 0.706000 # C53
606 15 11.045000 -9.296000 -0.706000 # C53
607 15 -11.045000 -9.296000 0.706000 # C53
608 15 -11.045000 9.296000 -0.706000 # C53
609 15 0.706000 11.045000 9.296000 # C53
610 15 -0.706000 11.045000 -9.296000 # C53
611 15 0.706000 -11.045000 -9.296000 # C53
612 15 -0.706000 -11.045000 9.296000 # C53
613 15 0.706000 9.296000 -11.045000 # C53
614 15 -0.706000 -9.296000 -11.045000 # C53
615 15 0.706000 -9.296000 11.045000 # C53
616 15 -0.706000 9.296000 11.045000 # C53
617 15 9.296000 11.045000 -0.706000 # C53
618 15 -9.296000 11.045000 0.706000 # C53
619 15 -9.296000 -11.045000 -0.706000 # C53
620 15 9.296000 -11.045000 0.706000 # C53
621 15 11.045000 0.706000 -9.296000 # C53
622 15 11.045000 -0.706000 9.296000 # C53
623 15 -11.045000 0.706000 9.296000 # C53
624 15 -11.045000 -0.706000 -9.296000 # C53
625 15 -9.296000 -0.706000 -11.045000 # C53
626 15 9.296000 0.706000 -11.045000 # C53
627 15 9.296000 -0.706000 11.045000 # C53
628 15 -9.296000 0.706000 11.045000 # C53
629 15 -11.045000 -9.296000 -0.706000 # C53
630 15 -11.045000 9.296000 0.706000 # C53
631 15 11.045000 9.296000 -0.706000 # C53
632 15 11.045000 -9.296000 0.706000 # C53
633 15 -0.706000 -11.045000 -9.296000 # C53
634 15 0.706000 -11.045000 9.296000 # C53
635 15 -0.706000 11.045000 9.296000 # C53
636 15 0.706000 11.045000 -9.296000 # C53
637 15 -0.706000 -9.296000 11.045000 # C53
638 15 0.706000 9.296000 11.045000 # C53
639 15 -0.706000 9.296000 -11.045000 # C53
640 15 0.706000 -9.296000 -11.045000 # C53
641 15 -9.296000 -11.045000 0.706000 # C53
642 15 9.296000 -11.045000 -0.706000 # C53
643 15 9.296000 11.045000 0.706000 # C53
644 15 -9.296000 11.045000 -0.706000 # C53
645 15 -11.045000 -0.706000 9.296000 # C53
646 15 -11.045000 0.706000 -9.296000 # C53
647 15 11.045000 -0.706000 -9.296000 # C53
648 15 11.045000 0.706000 9.296000 # C53
649 16 7.831000 2.614000 11.316000 # C54
650 16 -7.831000 -2.614000 11.316000 # C54
651 16 -7.831000 2.614000 -11.316000 # C54
652 16 7.831000 -2.614000 -11.316000 # C54
653 16 11.316000 7.831000 2.614000 # C54
654 16 11.316000 -7.831000 -2.614000 # C54
655 16 -11.316000 -7.831000 2.614000 # C54
656 16 -11.316000 7.831000 -2.614000 # C54
657 16 2.614000 11.316000 7.831000 # C54
658 16 -2.614000 11.316000 -7.831000 # C54
659 16 2.614000 -11.316000 -7.831000 # C54
660 16 -2.614000 -11.316000 7.831000 # C54
661 16 2.614000 7.831000 -11.316000 # C54
662 16 -2.614000 -7.831000 -11.316000 # C54
663 16 2.614000 -7.831000 11.316000 # C54
664 16 -2.614000 7.831000 11.316000 # C54
665 16 7.831000 11.316000 -2.614000 # C54
666 16 -7.831000 11.316000 2.614000 # C54
667 16 -7.831000 -11.316000 -2.614000 # C54
668 16 7.831000 -11.316000 2.614000 # C54
669 16 11.316000 2.614000 -7.831000 # C54
670 16 11.316000 -2.614000 7.831000 # C54
671 16 -11.316000 2.614000 7.831000 # C54
672 16 -11.316000 -2.614000 -7.831000 # C54
673 16 -7.831000 -2.614000 -11.316000 # C54
674 16 7.831000 2.614000 -11.316000 # C54
675 16 7.831000 -2.614000 11.316000 # C54
676 16 -7.831000 2.614000 11.316000 # C54
677 16 -11.316000 -7.831000 -2.614000 # C54
678 16 -11.316000 7.831000 2.614000 # C54
679 16 11.316000 7.831000 -2.614000 # C54
680 16 11.316000 -7.831000 2.614000 # C54
681 16 -2.614000 -11.316000 -7.831000 # C54
682 16 2.614000 -11.316000 7.831000 # C54
683 16 -2.614000 11.316000 7.831000 # C54
684 16 2.614000 11.316000 -7.831000 # C54
685 16 -2.614000 -7.831000 11.316000 # C54
686 16 2.614000 7.831000 11.316000 # C54
687 16 -2.614000 7.831000 -11.316000 # C54
688 16 2.614000 -7.831000 -11.316000 # C54
689 16 -7.831000 -11.316000 2.614000 # C54
690 16 7.831000 -11.316000 -2.614000 # C54
691 16 7.831000 11.316000 2.614000 # C54
692 16 -7.831000 11.316000 -2.614000 # C54
693 16 -11.316000 -2.614000 7.831000 # C54
694 16 -11.316000 2.614000 -7.831000 # C54
695 16 11.316000 -2.614000 -7.831000 # C54
696 16 11.316000 2.614000 7.831000 # C54
697 17 7.849000 4.372000 9.590000 # C58