LAMMPS data file. CGCMM style. atom_style atomic generated by VMD/TopoTools v1.6 on Tue May 03 11:35:05 EDT 2016
 768 atoms
 0 bonds
 0 angles
 0 dihedrals
 0 impropers
 20 atom types
 0 bond types
 0 angle types
 0 dihedral types
 0 improper types
 -14.510000 14.510000  xlo xhi
 -14.510000 14.510000  ylo yhi
 -14.510000 14.510000  zlo zhi

# Pair Coeffs
#
# 1  C
# 2  C
# 3  C
# 4  C
# 5  C
# 6  C
# 7  C
# 8  C
# 9  C
# 10  C
# 11  C
# 12  C
# 13  C
# 14  C
# 15  C
# 16  C
# 17  C
# 18  C
# 19  C
# 20  C

 Masses

 1 12.010700 # C
 2 12.010700 # C
 3 12.010700 # C
 4 12.010700 # C
 5 12.010700 # C
 6 12.010700 # C
 7 12.010700 # C
 8 12.010700 # C
 9 12.010700 # C
 10 12.010700 # C
 11 12.010700 # C
 12 12.010700 # C
 13 12.010700 # C
 14 12.010700 # C
 15 12.010700 # C
 16 12.010700 # C
 17 12.010700 # C
 18 12.010700 # C
 19 12.010700 # C
 20 12.010700 # C

 Atoms

1 1 4.921000 4.921000 11.862000 # C
2 1 -4.921000 -4.921000 11.862000 # C
3 1 -4.921000 4.921000 -11.862000 # C
4 1 4.921000 -4.921000 -11.862000 # C
5 1 11.862000 4.921000 4.921000 # C
6 1 11.862000 -4.921000 -4.921000 # C
7 1 -11.862000 -4.921000 4.921000 # C
8 1 -11.862000 4.921000 -4.921000 # C
9 1 4.921000 11.862000 4.921000 # C
10 1 -4.921000 11.862000 -4.921000 # C
11 1 4.921000 -11.862000 -4.921000 # C
12 1 -4.921000 -11.862000 4.921000 # C
13 1 4.921000 4.921000 -11.862000 # C
14 1 -4.921000 -4.921000 -11.862000 # C
15 1 4.921000 -4.921000 11.862000 # C
16 1 -4.921000 4.921000 11.862000 # C
17 1 4.921000 11.862000 -4.921000 # C
18 1 -4.921000 11.862000 4.921000 # C
19 1 -4.921000 -11.862000 -4.921000 # C
20 1 4.921000 -11.862000 4.921000 # C
21 1 11.862000 4.921000 -4.921000 # C
22 1 11.862000 -4.921000 4.921000 # C
23 1 -11.862000 4.921000 4.921000 # C
24 1 -11.862000 -4.921000 -4.921000 # C
25 4 9.589000 2.648000 9.589000 # C
26 4 -9.589000 -2.648000 9.589000 # C
27 4 -9.589000 2.648000 -9.589000 # C
28 4 9.589000 -2.648000 -9.589000 # C
29 4 9.589000 9.589000 2.648000 # C
30 4 9.589000 -9.589000 -2.648000 # C
31 4 -9.589000 -9.589000 2.648000 # C
32 4 -9.589000 9.589000 -2.648000 # C
33 4 2.648000 9.589000 9.589000 # C
34 4 -2.648000 9.589000 -9.589000 # C
35 4 2.648000 -9.589000 -9.589000 # C
36 4 -2.648000 -9.589000 9.589000 # C
37 4 2.648000 9.589000 -9.589000 # C
38 4 -2.648000 -9.589000 -9.589000 # C
39 4 2.648000 -9.589000 9.589000 # C
40 4 -2.648000 9.589000 9.589000 # C
41 4 9.589000 9.589000 -2.648000 # C
42 4 -9.589000 9.589000 2.648000 # C
43 4 -9.589000 -9.589000 -2.648000 # C
44 4 9.589000 -9.589000 2.648000 # C
45 4 9.589000 2.648000 -9.589000 # C
46 4 9.589000 -2.648000 9.589000 # C
47 4 -9.589000 2.648000 9.589000 # C
48 4 -9.589000 -2.648000 -9.589000 # C
49 19 2.698000 6.212000 13.143000 # C
50 19 -2.698000 -6.212000 13.143000 # C
51 19 -2.698000 6.212000 -13.143000 # C
52 19 2.698000 -6.212000 -13.143000 # C
53 19 13.143000 2.698000 6.212000 # C
54 19 13.143000 -2.698000 -6.212000 # C
55 19 -13.143000 -2.698000 6.212000 # C
56 19 -13.143000 2.698000 -6.212000 # C
57 19 6.212000 13.143000 2.698000 # C
58 19 -6.212000 13.143000 -2.698000 # C
59 19 6.212000 -13.143000 -2.698000 # C
60 19 -6.212000 -13.143000 2.698000 # C
61 19 6.212000 2.698000 -13.143000 # C
62 19 -6.212000 -2.698000 -13.143000 # C
63 19 6.212000 -2.698000 13.143000 # C
64 19 -6.212000 2.698000 13.143000 # C
65 19 2.698000 13.143000 -6.212000 # C
66 19 -2.698000 13.143000 6.212000 # C
67 19 -2.698000 -13.143000 -6.212000 # C
68 19 2.698000 -13.143000 6.212000 # C
69 19 13.143000 6.212000 -2.698000 # C
70 19 13.143000 -6.212000 2.698000 # C
71 19 -13.143000 6.212000 2.698000 # C
72 19 -13.143000 -6.212000 -2.698000 # C
73 19 -2.698000 -6.212000 -13.143000 # C
74 19 2.698000 6.212000 -13.143000 # C
75 19 2.698000 -6.212000 13.143000 # C
76 19 -2.698000 6.212000 13.143000 # C
77 19 -13.143000 -2.698000 -6.212000 # C
78 19 -13.143000 2.698000 6.212000 # C
79 19 13.143000 2.698000 -6.212000 # C
80 19 13.143000 -2.698000 6.212000 # C
81 19 -6.212000 -13.143000 -2.698000 # C
82 19 6.212000 -13.143000 2.698000 # C
83 19 -6.212000 13.143000 2.698000 # C
84 19 6.212000 13.143000 -2.698000 # C
85 19 -6.212000 -2.698000 13.143000 # C
86 19 6.212000 2.698000 13.143000 # C
87 19 -6.212000 2.698000 -13.143000 # C
88 19 6.212000 -2.698000 -13.143000 # C
89 19 -2.698000 -13.143000 6.212000 # C
90 19 2.698000 -13.143000 -6.212000 # C
91 19 2.698000 13.143000 6.212000 # C
92 19 -2.698000 13.143000 -6.212000 # C
93 19 -13.143000 -6.212000 2.698000 # C
94 19 -13.143000 6.212000 -2.698000 # C
95 19 13.143000 -6.212000 -2.698000 # C
96 19 13.143000 6.212000 2.698000 # C
97 20 6.080000 6.080000 9.559000 # C
98 20 -6.080000 -6.080000 9.559000 # C
99 20 -6.080000 6.080000 -9.559000 # C
100 20 6.080000 -6.080000 -9.559000 # C
101 20 9.559000 6.080000 6.080000 # C
102 20 9.559000 -6.080000 -6.080000 # C
103 20 -9.559000 -6.080000 6.080000 # C
104 20 -9.559000 6.080000 -6.080000 # C
105 20 6.080000 9.559000 6.080000 # C
106 20 -6.080000 9.559000 -6.080000 # C
107 20 6.080000 -9.559000 -6.080000 # C
108 20 -6.080000 -9.559000 6.080000 # C
109 20 6.080000 6.080000 -9.559000 # C
110 20 -6.080000 -6.080000 -9.559000 # C
111 20 6.080000 -6.080000 9.559000 # C
112 20 -6.080000 6.080000 9.559000 # C
113 20 6.080000 9.559000 -6.080000 # C
114 20 -6.080000 9.559000 6.080000 # C
115 20 -6.080000 -9.559000 -6.080000 # C
116 20 6.080000 -9.559000 6.080000 # C
117 20 9.559000 6.080000 -6.080000 # C
118 20 9.559000 -6.080000 6.080000 # C
119 20 -9.559000 6.080000 6.080000 # C
120 20 -9.559000 -6.080000 -6.080000 # C
121 2 8.298000 1.367000 11.811000 # C
122 2 -8.298000 -1.367000 11.811000 # C
123 2 -8.298000 1.367000 -11.811000 # C
124 2 8.298000 -1.367000 -11.811000 # C
125 2 11.811000 8.298000 1.367000 # C
126 2 11.811000 -8.298000 -1.367000 # C
127 2 -11.811000 -8.298000 1.367000 # C
128 2 -11.811000 8.298000 -1.367000 # C
129 2 1.367000 11.811000 8.298000 # C
130 2 -1.367000 11.811000 -8.298000 # C
131 2 1.367000 -11.811000 -8.298000 # C
132 2 -1.367000 -11.811000 8.298000 # C
133 2 1.367000 8.298000 -11.811000 # C
134 2 -1.367000 -8.298000 -11.811000 # C
135 2 1.367000 -8.298000 11.811000 # C
136 2 -1.367000 8.298000 11.811000 # C
137 2 8.298000 11.811000 -1.367000 # C
138 2 -8.298000 11.811000 1.367000 # C
139 2 -8.298000 -11.811000 -1.367000 # C
140 2 8.298000 -11.811000 1.367000 # C
141 2 11.811000 1.367000 -8.298000 # C
142 2 11.811000 -1.367000 8.298000 # C
143 2 -11.811000 1.367000 8.298000 # C
144 2 -11.811000 -1.367000 -8.298000 # C
145 2 -8.298000 -1.367000 -11.811000 # C
146 2 8.298000 1.367000 -11.811000 # C
147 2 8.298000 -1.367000 11.811000 # C
148 2 -8.298000 1.367000 11.811000 # C
149 2 -11.811000 -8.298000 -1.367000 # C
150 2 -11.811000 8.298000 1.367000 # C
151 2 11.811000 8.298000 -1.367000 # C
152 2 11.811000 -8.298000 1.367000 # C
153 2 -1.367000 -11.811000 -8.298000 # C
154 2 1.367000 -11.811000 8.298000 # C
155 2 -1.367000 11.811000 8.298000 # C
156 2 1.367000 11.811000 -8.298000 # C
157 2 -1.367000 -8.298000 11.811000 # C
158 2 1.367000 8.298000 11.811000 # C
159 2 -1.367000 8.298000 -11.811000 # C
160 2 1.367000 -8.298000 -11.811000 # C
161 2 -8.298000 -11.811000 1.367000 # C
162 2 8.298000 -11.811000 -1.367000 # C
163 2 8.298000 11.811000 1.367000 # C
164 2 -8.298000 11.811000 -1.367000 # C
165 2 -11.811000 -1.367000 8.298000 # C
166 2 -11.811000 1.367000 -8.298000 # C
167 2 11.811000 -1.367000 -8.298000 # C
168 2 11.811000 1.367000 8.298000 # C
169 3 8.430000 4.951000 8.430000 # C
170 3 -8.430000 -4.951000 8.430000 # C
171 3 -8.430000 4.951000 -8.430000 # C
172 3 8.430000 -4.951000 -8.430000 # C
173 3 8.430000 8.430000 4.951000 # C
174 3 8.430000 -8.430000 -4.951000 # C
175 3 -8.430000 -8.430000 4.951000 # C
176 3 -8.430000 8.430000 -4.951000 # C
177 3 4.951000 8.430000 8.430000 # C
178 3 -4.951000 8.430000 -8.430000 # C
179 3 4.951000 -8.430000 -8.430000 # C
180 3 -4.951000 -8.430000 8.430000 # C
181 3 4.951000 8.430000 -8.430000 # C
182 3 -4.951000 -8.430000 -8.430000 # C
183 3 4.951000 -8.430000 8.430000 # C
184 3 -4.951000 8.430000 8.430000 # C
185 3 8.430000 8.430000 -4.951000 # C
186 3 -8.430000 8.430000 4.951000 # C
187 3 -8.430000 -8.430000 -4.951000 # C
188 3 8.430000 -8.430000 4.951000 # C
189 3 8.430000 4.951000 -8.430000 # C
190 3 8.430000 -4.951000 8.430000 # C
191 3 -8.430000 4.951000 8.430000 # C
192 3 -8.430000 -4.951000 -8.430000 # C
193 5 6.073000 4.326000 11.285000 # C
194 5 -6.073000 -4.326000 11.285000 # C
195 5 -6.073000 4.326000 -11.285000 # C
196 5 6.073000 -4.326000 -11.285000 # C
197 5 11.285000 6.073000 4.326000 # C
198 5 11.285000 -6.073000 -4.326000 # C
199 5 -11.285000 -6.073000 4.326000 # C
200 5 -11.285000 6.073000 -4.326000 # C
201 5 4.326000 11.285000 6.073000 # C
202 5 -4.326000 11.285000 -6.073000 # C
203 5 4.326000 -11.285000 -6.073000 # C
204 5 -4.326000 -11.285000 6.073000 # C
205 5 4.326000 6.073000 -11.285000 # C
206 5 -4.326000 -6.073000 -11.285000 # C
207 5 4.326000 -6.073000 11.285000 # C
208 5 -4.326000 6.073000 11.285000 # C
209 5 6.073000 11.285000 -4.326000 # C
210 5 -6.073000 11.285000 4.326000 # C
211 5 -6.073000 -11.285000 -4.326000 # C
212 5 6.073000 -11.285000 4.326000 # C
213 5 11.285000 4.326000 -6.073000 # C
214 5 11.285000 -4.326000 6.073000 # C
215 5 -11.285000 4.326000 6.073000 # C
216 5 -11.285000 -4.326000 -6.073000 # C
217 5 -6.073000 -4.326000 -11.285000 # C
218 5 6.073000 4.326000 -11.285000 # C
219 5 6.073000 -4.326000 11.285000 # C
220 5 -6.073000 4.326000 11.285000 # C
221 5 -11.285000 -6.073000 -4.326000 # C
222 5 -11.285000 6.073000 4.326000 # C
223 5 11.285000 6.073000 -4.326000 # C
224 5 11.285000 -6.073000 4.326000 # C
225 5 -4.326000 -11.285000 -6.073000 # C
226 5 4.326000 -11.285000 6.073000 # C
227 5 -4.326000 11.285000 6.073000 # C
228 5 4.326000 11.285000 -6.073000 # C
229 5 -4.326000 -6.073000 11.285000 # C
230 5 4.326000 6.073000 11.285000 # C
231 5 -4.326000 6.073000 -11.285000 # C
232 5 4.326000 -6.073000 -11.285000 # C
233 5 -6.073000 -11.285000 4.326000 # C
234 5 6.073000 -11.285000 -4.326000 # C
235 5 6.073000 11.285000 4.326000 # C
236 5 -6.073000 11.285000 -4.326000 # C
237 5 -11.285000 -4.326000 6.073000 # C
238 5 -11.285000 4.326000 -6.073000 # C
239 5 11.285000 -4.326000 -6.073000 # C
240 5 11.285000 4.326000 6.073000 # C
241 6 4.469000 4.469000 13.126000 # C
242 6 -4.469000 -4.469000 13.126000 # C
243 6 -4.469000 4.469000 -13.126000 # C
244 6 4.469000 -4.469000 -13.126000 # C
245 6 13.126000 4.469000 4.469000 # C
246 6 13.126000 -4.469000 -4.469000 # C
247 6 -13.126000 -4.469000 4.469000 # C
248 6 -13.126000 4.469000 -4.469000 # C
249 6 4.469000 13.126000 4.469000 # C
250 6 -4.469000 13.126000 -4.469000 # C
251 6 4.469000 -13.126000 -4.469000 # C
252 6 -4.469000 -13.126000 4.469000 # C
253 6 4.469000 4.469000 -13.126000 # C
254 6 -4.469000 -4.469000 -13.126000 # C
255 6 4.469000 -4.469000 13.126000 # C
256 6 -4.469000 4.469000 13.126000 # C
257 6 4.469000 13.126000 -4.469000 # C
258 6 -4.469000 13.126000 4.469000 # C
259 6 -4.469000 -13.126000 -4.469000 # C
260 6 4.469000 -13.126000 4.469000 # C
261 6 13.126000 4.469000 -4.469000 # C
262 6 13.126000 -4.469000 4.469000 # C
263 6 -13.126000 4.469000 4.469000 # C
264 6 -13.126000 -4.469000 -4.469000 # C
265 7 10.184000 3.224000 8.437000 # C
266 7 -10.184000 -3.224000 8.437000 # C
267 7 -10.184000 3.224000 -8.437000 # C
268 7 10.184000 -3.224000 -8.437000 # C
269 7 8.437000 10.184000 3.224000 # C
270 7 8.437000 -10.184000 -3.224000 # C
271 7 -8.437000 -10.184000 3.224000 # C
272 7 -8.437000 10.184000 -3.224000 # C
273 7 3.224000 8.437000 10.184000 # C
274 7 -3.224000 8.437000 -10.184000 # C
275 7 3.224000 -8.437000 -10.184000 # C
276 7 -3.224000 -8.437000 10.184000 # C
277 7 3.224000 10.184000 -8.437000 # C
278 7 -3.224000 -10.184000 -8.437000 # C
279 7 3.224000 -10.184000 8.437000 # C
280 7 -3.224000 10.184000 8.437000 # C
281 7 10.184000 8.437000 -3.224000 # C
282 7 -10.184000 8.437000 3.224000 # C
283 7 -10.184000 -8.437000 -3.224000 # C
284 7 10.184000 -8.437000 3.224000 # C
285 7 8.437000 3.224000 -10.184000 # C
286 7 8.437000 -3.224000 10.184000 # C
287 7 -8.437000 3.224000 10.184000 # C
288 7 -8.437000 -3.224000 -10.184000 # C
289 7 -10.184000 -3.224000 -8.437000 # C
290 7 10.184000 3.224000 -8.437000 # C
291 7 10.184000 -3.224000 8.437000 # C
292 7 -10.184000 3.224000 8.437000 # C
293 7 -8.437000 -10.184000 -3.224000 # C
294 7 -8.437000 10.184000 3.224000 # C
295 7 8.437000 10.184000 -3.224000 # C
296 7 8.437000 -10.184000 3.224000 # C
297 7 -3.224000 -8.437000 -10.184000 # C
298 7 3.224000 -8.437000 10.184000 # C
299 7 -3.224000 8.437000 10.184000 # C
300 7 3.224000 8.437000 -10.184000 # C
301 7 -3.224000 -10.184000 8.437000 # C
302 7 3.224000 10.184000 8.437000 # C
303 7 -3.224000 10.184000 -8.437000 # C
304 7 3.224000 -10.184000 -8.437000 # C
305 7 -10.184000 -8.437000 3.224000 # C
306 7 10.184000 -8.437000 -3.224000 # C
307 7 10.184000 8.437000 3.224000 # C
308 7 -10.184000 8.437000 -3.224000 # C
309 7 -8.437000 -3.224000 10.184000 # C
310 7 -8.437000 3.224000 -10.184000 # C
311 7 8.437000 -3.224000 -10.184000 # C
312 7 8.437000 3.224000 10.184000 # C
313 8 10.041000 1.384000 10.041000 # C
314 8 -10.041000 -1.384000 10.041000 # C
315 8 -10.041000 1.384000 -10.041000 # C
316 8 10.041000 -1.384000 -10.041000 # C
317 8 10.041000 10.041000 1.384000 # C
318 8 10.041000 -10.041000 -1.384000 # C
319 8 -10.041000 -10.041000 1.384000 # C
320 8 -10.041000 10.041000 -1.384000 # C
321 8 1.384000 10.041000 10.041000 # C
322 8 -1.384000 10.041000 -10.041000 # C
323 8 1.384000 -10.041000 -10.041000 # C
324 8 -1.384000 -10.041000 10.041000 # C
325 8 1.384000 10.041000 -10.041000 # C
326 8 -1.384000 -10.041000 -10.041000 # C
327 8 1.384000 -10.041000 10.041000 # C
328 8 -1.384000 10.041000 10.041000 # C
329 8 10.041000 10.041000 -1.384000 # C
330 8 -10.041000 10.041000 1.384000 # C
331 8 -10.041000 -10.041000 -1.384000 # C
332 8 10.041000 -10.041000 1.384000 # C
333 8 10.041000 1.384000 -10.041000 # C
334 8 10.041000 -1.384000 10.041000 # C
335 8 -10.041000 1.384000 10.041000 # C
336 8 -10.041000 -1.384000 -10.041000 # C
337 9 1.587000 6.871000 13.792000 # C
338 9 -1.587000 -6.871000 13.792000 # C
339 9 -1.587000 6.871000 -13.792000 # C
340 9 1.587000 -6.871000 -13.792000 # C
341 9 13.792000 1.587000 6.871000 # C
342 9 13.792000 -1.587000 -6.871000 # C
343 9 -13.792000 -1.587000 6.871000 # C
344 9 -13.792000 1.587000 -6.871000 # C
345 9 6.871000 13.792000 1.587000 # C
346 9 -6.871000 13.792000 -1.587000 # C
347 9 6.871000 -13.792000 -1.587000 # C
348 9 -6.871000 -13.792000 1.587000 # C
349 9 6.871000 1.587000 -13.792000 # C
350 9 -6.871000 -1.587000 -13.792000 # C
351 9 6.871000 -1.587000 13.792000 # C
352 9 -6.871000 1.587000 13.792000 # C
353 9 1.587000 13.792000 -6.871000 # C
354 9 -1.587000 13.792000 6.871000 # C
355 9 -1.587000 -13.792000 -6.871000 # C
356 9 1.587000 -13.792000 6.871000 # C
357 9 13.792000 6.871000 -1.587000 # C
358 9 13.792000 -6.871000 1.587000 # C
359 9 -13.792000 6.871000 1.587000 # C
360 9 -13.792000 -6.871000 -1.587000 # C
361 9 -1.587000 -6.871000 -13.792000 # C
362 9 1.587000 6.871000 -13.792000 # C
363 9 1.587000 -6.871000 13.792000 # C
364 9 -1.587000 6.871000 13.792000 # C
365 9 -13.792000 -1.587000 -6.871000 # C
366 9 -13.792000 1.587000 6.871000 # C
367 9 13.792000 1.587000 -6.871000 # C
368 9 13.792000 -1.587000 6.871000 # C
369 9 -6.871000 -13.792000 -1.587000 # C
370 9 6.871000 -13.792000 1.587000 # C
371 9 -6.871000 13.792000 1.587000 # C
372 9 6.871000 13.792000 -1.587000 # C
373 9 -6.871000 -1.587000 13.792000 # C
374 9 6.871000 1.587000 13.792000 # C
375 9 -6.871000 1.587000 -13.792000 # C
376 9 6.871000 -1.587000 -13.792000 # C
377 9 -1.587000 -13.792000 6.871000 # C
378 9 1.587000 -13.792000 -6.871000 # C
379 9 1.587000 13.792000 6.871000 # C
380 9 -1.587000 13.792000 -6.871000 # C
381 9 -13.792000 -6.871000 1.587000 # C
382 9 -13.792000 6.871000 -1.587000 # C
383 9 13.792000 -6.871000 -1.587000 # C
384 9 13.792000 6.871000 1.587000 # C
385 10 3.465000 5.214000 13.804000 # C
386 10 -3.465000 -5.214000 13.804000 # C
387 10 -3.465000 5.214000 -13.804000 # C
388 10 3.465000 -5.214000 -13.804000 # C
389 10 13.804000 3.465000 5.214000 # C
390 10 13.804000 -3.465000 -5.214000 # C
391 10 -13.804000 -3.465000 5.214000 # C
392 10 -13.804000 3.465000 -5.214000 # C
393 10 5.214000 13.804000 3.465000 # C
394 10 -5.214000 13.804000 -3.465000 # C
395 10 5.214000 -13.804000 -3.465000 # C
396 10 -5.214000 -13.804000 3.465000 # C
397 10 5.214000 3.465000 -13.804000 # C
398 10 -5.214000 -3.465000 -13.804000 # C
399 10 5.214000 -3.465000 13.804000 # C
400 10 -5.214000 3.465000 13.804000 # C
401 10 3.465000 13.804000 -5.214000 # C
402 10 -3.465000 13.804000 5.214000 # C
403 10 -3.465000 -13.804000 -5.214000 # C
404 10 3.465000 -13.804000 5.214000 # C
405 10 13.804000 5.214000 -3.465000 # C
406 10 13.804000 -5.214000 3.465000 # C
407 10 -13.804000 5.214000 3.465000 # C
408 10 -13.804000 -5.214000 -3.465000 # C
409 10 -3.465000 -5.214000 -13.804000 # C
410 10 3.465000 5.214000 -13.804000 # C
411 10 3.465000 -5.214000 13.804000 # C
412 10 -3.465000 5.214000 13.804000 # C
413 10 -13.804000 -3.465000 -5.214000 # C
414 10 -13.804000 3.465000 5.214000 # C
415 10 13.804000 3.465000 -5.214000 # C
416 10 13.804000 -3.465000 5.214000 # C
417 10 -5.214000 -13.804000 -3.465000 # C
418 10 5.214000 -13.804000 3.465000 # C
419 10 -5.214000 13.804000 3.465000 # C
420 10 5.214000 13.804000 -3.465000 # C
421 10 -5.214000 -3.465000 13.804000 # C
422 10 5.214000 3.465000 13.804000 # C
423 10 -5.214000 3.465000 -13.804000 # C
424 10 5.214000 -3.465000 -13.804000 # C
425 10 -3.465000 -13.804000 5.214000 # C
426 10 3.465000 -13.804000 -5.214000 # C
427 10 3.465000 13.804000 5.214000 # C
428 10 -3.465000 13.804000 -5.214000 # C
429 10 -13.804000 -5.214000 3.465000 # C
430 10 -13.804000 5.214000 -3.465000 # C
431 10 13.804000 -5.214000 -3.465000 # C
432 10 13.804000 5.214000 3.465000 # C
433 11 3.194000 6.679000 11.896000 # C
434 11 -3.194000 -6.679000 11.896000 # C
435 11 -3.194000 6.679000 -11.896000 # C
436 11 3.194000 -6.679000 -11.896000 # C
437 11 11.896000 3.194000 6.679000 # C
438 11 11.896000 -3.194000 -6.679000 # C
439 11 -11.896000 -3.194000 6.679000 # C
440 11 -11.896000 3.194000 -6.679000 # C
441 11 6.679000 11.896000 3.194000 # C
442 11 -6.679000 11.896000 -3.194000 # C
443 11 6.679000 -11.896000 -3.194000 # C
444 11 -6.679000 -11.896000 3.194000 # C
445 11 6.679000 3.194000 -11.896000 # C
446 11 -6.679000 -3.194000 -11.896000 # C
447 11 6.679000 -3.194000 11.896000 # C
448 11 -6.679000 3.194000 11.896000 # C
449 11 3.194000 11.896000 -6.679000 # C
450 11 -3.194000 11.896000 6.679000 # C
451 11 -3.194000 -11.896000 -6.679000 # C
452 11 3.194000 -11.896000 6.679000 # C
453 11 11.896000 6.679000 -3.194000 # C
454 11 11.896000 -6.679000 3.194000 # C
455 11 -11.896000 6.679000 3.194000 # C
456 11 -11.896000 -6.679000 -3.194000 # C
457 11 -3.194000 -6.679000 -11.896000 # C
458 11 3.194000 6.679000 -11.896000 # C
459 11 3.194000 -6.679000 11.896000 # C
460 11 -3.194000 6.679000 11.896000 # C
461 11 -11.896000 -3.194000 -6.679000 # C
462 11 -11.896000 3.194000 6.679000 # C
463 11 11.896000 3.194000 -6.679000 # C
464 11 11.896000 -3.194000 6.679000 # C
465 11 -6.679000 -11.896000 -3.194000 # C
466 11 6.679000 -11.896000 3.194000 # C
467 11 -6.679000 11.896000 3.194000 # C
468 11 6.679000 11.896000 -3.194000 # C
469 11 -6.679000 -3.194000 11.896000 # C
470 11 6.679000 3.194000 11.896000 # C
471 11 -6.679000 3.194000 -11.896000 # C
472 11 6.679000 -3.194000 -11.896000 # C
473 11 -3.194000 -11.896000 6.679000 # C
474 11 3.194000 -11.896000 -6.679000 # C
475 11 3.194000 11.896000 6.679000 # C
476 11 -3.194000 11.896000 -6.679000 # C
477 11 -11.896000 -6.679000 3.194000 # C
478 11 -11.896000 6.679000 -3.194000 # C
479 11 11.896000 -6.679000 -3.194000 # C
480 11 11.896000 6.679000 3.194000 # C
481 12 4.920000 6.661000 10.138000 # C
482 12 -4.920000 -6.661000 10.138000 # C
483 12 -4.920000 6.661000 -10.138000 # C
484 12 4.920000 -6.661000 -10.138000 # C
485 12 10.138000 4.920000 6.661000 # C
486 12 10.138000 -4.920000 -6.661000 # C
487 12 -10.138000 -4.920000 6.661000 # C
488 12 -10.138000 4.920000 -6.661000 # C
489 12 6.661000 10.138000 4.920000 # C
490 12 -6.661000 10.138000 -4.920000 # C
491 12 6.661000 -10.138000 -4.920000 # C
492 12 -6.661000 -10.138000 4.920000 # C
493 12 6.661000 4.920000 -10.138000 # C
494 12 -6.661000 -4.920000 -10.138000 # C
495 12 6.661000 -4.920000 10.138000 # C
496 12 -6.661000 4.920000 10.138000 # C
497 12 4.920000 10.138000 -6.661000 # C
498 12 -4.920000 10.138000 6.661000 # C
499 12 -4.920000 -10.138000 -6.661000 # C
500 12 4.920000 -10.138000 6.661000 # C
501 12 10.138000 6.661000 -4.920000 # C
502 12 10.138000 -6.661000 4.920000 # C
503 12 -10.138000 6.661000 4.920000 # C
504 12 -10.138000 -6.661000 -4.920000 # C
505 12 -4.920000 -6.661000 -10.138000 # C
506 12 4.920000 6.661000 -10.138000 # C
507 12 4.920000 -6.661000 10.138000 # C
508 12 -4.920000 6.661000 10.138000 # C
509 12 -10.138000 -4.920000 -6.661000 # C
510 12 -10.138000 4.920000 6.661000 # C
511 12 10.138000 4.920000 -6.661000 # C
512 12 10.138000 -4.920000 6.661000 # C
513 12 -6.661000 -10.138000 -4.920000 # C
514 12 6.661000 -10.138000 4.920000 # C
515 12 -6.661000 10.138000 4.920000 # C
516 12 6.661000 10.138000 -4.920000 # C
517 12 -6.661000 -4.920000 10.138000 # C
518 12 6.661000 4.920000 10.138000 # C
519 12 -6.661000 4.920000 -10.138000 # C
520 12 6.661000 -4.920000 -10.138000 # C
521 12 -4.920000 -10.138000 6.661000 # C
522 12 4.920000 -10.138000 -6.661000 # C
523 12 4.920000 10.138000 6.661000 # C
524 12 -4.920000 10.138000 -6.661000 # C
525 12 -10.138000 -6.661000 4.920000 # C
526 12 -10.138000 6.661000 -4.920000 # C
527 12 10.138000 -6.661000 -4.920000 # C
528 12 10.138000 6.661000 4.920000 # C
529 13 6.672000 6.672000 8.412000 # C
530 13 -6.672000 -6.672000 8.412000 # C
531 13 -6.672000 6.672000 -8.412000 # C
532 13 6.672000 -6.672000 -8.412000 # C
533 13 8.412000 6.672000 6.672000 # C
534 13 8.412000 -6.672000 -6.672000 # C
535 13 -8.412000 -6.672000 6.672000 # C
536 13 -8.412000 6.672000 -6.672000 # C
537 13 6.672000 8.412000 6.672000 # C
538 13 -6.672000 8.412000 -6.672000 # C
539 13 6.672000 -8.412000 -6.672000 # C
540 13 -6.672000 -8.412000 6.672000 # C
541 13 6.672000 6.672000 -8.412000 # C
542 13 -6.672000 -6.672000 -8.412000 # C
543 13 6.672000 -6.672000 8.412000 # C
544 13 -6.672000 6.672000 8.412000 # C
545 13 6.672000 8.412000 -6.672000 # C
546 13 -6.672000 8.412000 6.672000 # C
547 13 -6.672000 -8.412000 -6.672000 # C
548 13 6.672000 -8.412000 6.672000 # C
549 13 8.412000 6.672000 -6.672000 # C
550 13 8.412000 -6.672000 6.672000 # C
551 13 -8.412000 6.672000 6.672000 # C
552 13 -8.412000 -6.672000 -6.672000 # C
553 14 7.639000 0.718000 12.923000 # C
554 14 -7.639000 -0.718000 12.923000 # C
555 14 -7.639000 0.718000 -12.923000 # C
556 14 7.639000 -0.718000 -12.923000 # C
557 14 12.923000 7.639000 0.718000 # C
558 14 12.923000 -7.639000 -0.718000 # C
559 14 -12.923000 -7.639000 0.718000 # C
560 14 -12.923000 7.639000 -0.718000 # C
561 14 0.718000 12.923000 7.639000 # C
562 14 -0.718000 12.923000 -7.639000 # C
563 14 0.718000 -12.923000 -7.639000 # C
564 14 -0.718000 -12.923000 7.639000 # C
565 14 0.718000 7.639000 -12.923000 # C
566 14 -0.718000 -7.639000 -12.923000 # C
567 14 0.718000 -7.639000 12.923000 # C
568 14 -0.718000 7.639000 12.923000 # C
569 14 7.639000 12.923000 -0.718000 # C
570 14 -7.639000 12.923000 0.718000 # C
571 14 -7.639000 -12.923000 -0.718000 # C
572 14 7.639000 -12.923000 0.718000 # C
573 14 12.923000 0.718000 -7.639000 # C
574 14 12.923000 -0.718000 7.639000 # C
575 14 -12.923000 0.718000 7.639000 # C
576 14 -12.923000 -0.718000 -7.639000 # C
577 14 -7.639000 -0.718000 -12.923000 # C
578 14 7.639000 0.718000 -12.923000 # C
579 14 7.639000 -0.718000 12.923000 # C
580 14 -7.639000 0.718000 12.923000 # C
581 14 -12.923000 -7.639000 -0.718000 # C
582 14 -12.923000 7.639000 0.718000 # C
583 14 12.923000 7.639000 -0.718000 # C
584 14 12.923000 -7.639000 0.718000 # C
585 14 -0.718000 -12.923000 -7.639000 # C
586 14 0.718000 -12.923000 7.639000 # C
587 14 -0.718000 12.923000 7.639000 # C
588 14 0.718000 12.923000 -7.639000 # C
589 14 -0.718000 -7.639000 12.923000 # C
590 14 0.718000 7.639000 12.923000 # C
591 14 -0.718000 7.639000 -12.923000 # C
592 14 0.718000 -7.639000 -12.923000 # C
593 14 -7.639000 -12.923000 0.718000 # C
594 14 7.639000 -12.923000 -0.718000 # C
595 14 7.639000 12.923000 0.718000 # C
596 14 -7.639000 12.923000 -0.718000 # C
597 14 -12.923000 -0.718000 7.639000 # C
598 14 -12.923000 0.718000 -7.639000 # C
599 14 12.923000 -0.718000 -7.639000 # C
600 14 12.923000 0.718000 7.639000 # C
601 15 9.296000 0.706000 11.045000 # C
602 15 -9.296000 -0.706000 11.045000 # C
603 15 -9.296000 0.706000 -11.045000 # C
604 15 9.296000 -0.706000 -11.045000 # C
605 15 11.045000 9.296000 0.706000 # C
606 15 11.045000 -9.296000 -0.706000 # C
607 15 -11.045000 -9.296000 0.706000 # C
608 15 -11.045000 9.296000 -0.706000 # C
609 15 0.706000 11.045000 9.296000 # C
610 15 -0.706000 11.045000 -9.296000 # C
611 15 0.706000 -11.045000 -9.296000 # C
612 15 -0.706000 -11.045000 9.296000 # C
613 15 0.706000 9.296000 -11.045000 # C
614 15 -0.706000 -9.296000 -11.045000 # C
615 15 0.706000 -9.296000 11.045000 # C
616 15 -0.706000 9.296000 11.045000 # C
617 15 9.296000 11.045000 -0.706000 # C
618 15 -9.296000 11.045000 0.706000 # C
619 15 -9.296000 -11.045000 -0.706000 # C
620 15 9.296000 -11.045000 0.706000 # C
621 15 11.045000 0.706000 -9.296000 # C
622 15 11.045000 -0.706000 9.296000 # C
623 15 -11.045000 0.706000 9.296000 # C
624 15 -11.045000 -0.706000 -9.296000 # C
625 15 -9.296000 -0.706000 -11.045000 # C
626 15 9.296000 0.706000 -11.045000 # C
627 15 9.296000 -0.706000 11.045000 # C
628 15 -9.296000 0.706000 11.045000 # C
629 15 -11.045000 -9.296000 -0.706000 # C
630 15 -11.045000 9.296000 0.706000 # C
631 15 11.045000 9.296000 -0.706000 # C
632 15 11.045000 -9.296000 0.706000 # C
633 15 -0.706000 -11.045000 -9.296000 # C
634 15 0.706000 -11.045000 9.296000 # C
635 15 -0.706000 11.045000 9.296000 # C
636 15 0.706000 11.045000 -9.296000 # C
637 15 -0.706000 -9.296000 11.045000 # C
638 15 0.706000 9.296000 11.045000 # C
639 15 -0.706000 9.296000 -11.045000 # C
640 15 0.706000 -9.296000 -11.045000 # C
641 15 -9.296000 -11.045000 0.706000 # C
642 15 9.296000 -11.045000 -0.706000 # C
643 15 9.296000 11.045000 0.706000 # C
644 15 -9.296000 11.045000 -0.706000 # C
645 15 -11.045000 -0.706000 9.296000 # C
646 15 -11.045000 0.706000 -9.296000 # C
647 15 11.045000 -0.706000 -9.296000 # C
648 15 11.045000 0.706000 9.296000 # C
649 16 7.831000 2.614000 11.316000 # C
650 16 -7.831000 -2.614000 11.316000 # C
651 16 -7.831000 2.614000 -11.316000 # C
652 16 7.831000 -2.614000 -11.316000 # C
653 16 11.316000 7.831000 2.614000 # C
654 16 11.316000 -7.831000 -2.614000 # C
655 16 -11.316000 -7.831000 2.614000 # C
656 16 -11.316000 7.831000 -2.614000 # C
657 16 2.614000 11.316000 7.831000 # C
658 16 -2.614000 11.316000 -7.831000 # C
659 16 2.614000 -11.316000 -7.831000 # C
660 16 -2.614000 -11.316000 7.831000 # C
661 16 2.614000 7.831000 -11.316000 # C
662 16 -2.614000 -7.831000 -11.316000 # C
663 16 2.614000 -7.831000 11.316000 # C
664 16 -2.614000 7.831000 11.316000 # C
665 16 7.831000 11.316000 -2.614000 # C
666 16 -7.831000 11.316000 2.614000 # C
667 16 -7.831000 -11.316000 -2.614000 # C
668 16 7.831000 -11.316000 2.614000 # C
669 16 11.316000 2.614000 -7.831000 # C
670 16 11.316000 -2.614000 7.831000 # C
671 16 -11.316000 2.614000 7.831000 # C
672 16 -11.316000 -2.614000 -7.831000 # C
673 16 -7.831000 -2.614000 -11.316000 # C
674 16 7.831000 2.614000 -11.316000 # C
675 16 7.831000 -2.614000 11.316000 # C
676 16 -7.831000 2.614000 11.316000 # C
677 16 -11.316000 -7.831000 -2.614000 # C
678 16 -11.316000 7.831000 2.614000 # C
679 16 11.316000 7.831000 -2.614000 # C
680 16 11.316000 -7.831000 2.614000 # C
681 16 -2.614000 -11.316000 -7.831000 # C
682 16 2.614000 -11.316000 7.831000 # C
683 16 -2.614000 11.316000 7.831000 # C
684 16 2.614000 11.316000 -7.831000 # C
685 16 -2.614000 -7.831000 11.316000 # C
686 16 2.614000 7.831000 11.316000 # C
687 16 -2.614000 7.831000 -11.316000 # C
688 16 2.614000 -7.831000 -11.316000 # C
689 16 -7.831000 -11.316000 2.614000 # C
690 16 7.831000 -11.316000 -2.614000 # C
691 16 7.831000 11.316000 2.614000 # C
692 16 -7.831000 11.316000 -2.614000 # C
693 16 -11.316000 -2.614000 7.831000 # C
694 16 -11.316000 2.614000 -7.831000 # C
695 16 11.316000 -2.614000 -7.831000 # C
696 16 11.316000 2.614000 7.831000 # C
697 17 7.849000 4.372000 9.590000 # C
698 17 -7.849000 -4.372000 9.590000 # C
699 17 -7.849000 4.372000 -9.590000 # C
700 17 7.849000 -4.372000 -9.590000 # C
701 17 9.590000 7.849000 4.372000 # C
702 17 9.590000 -7.849000 -4.372000 # C
703 17 -9.590000 -7.849000 4.372000 # C
704 17 -9.590000 7.849000 -4.372000 # C
705 17 4.372000 9.590000 7.849000 # C
706 17 -4.372000 9.590000 -7.849000 # C
707 17 4.372000 -9.590000 -7.849000 # C
708 17 -4.372000 -9.590000 7.849000 # C
709 17 4.372000 7.849000 -9.590000 # C
710 17 -4.372000 -7.849000 -9.590000 # C
711 17 4.372000 -7.849000 9.590000 # C
712 17 -4.372000 7.849000 9.590000 # C
713 17 7.849000 9.590000 -4.372000 # C
714 17 -7.849000 9.590000 4.372000 # C
715 17 -7.849000 -9.590000 -4.372000 # C
716 17 7.849000 -9.590000 4.372000 # C
717 17 9.590000 4.372000 -7.849000 # C
718 17 9.590000 -4.372000 7.849000 # C
719 17 -9.590000 4.372000 7.849000 # C
720 17 -9.590000 -4.372000 -7.849000 # C
721 17 -7.849000 -4.372000 -9.590000 # C
722 17 7.849000 4.372000 -9.590000 # C
723 17 7.849000 -4.372000 9.590000 # C
724 17 -7.849000 4.372000 9.590000 # C
725 17 -9.590000 -7.849000 -4.372000 # C
726 17 -9.590000 7.849000 4.372000 # C
727 17 9.590000 7.849000 -4.372000 # C
728 17 9.590000 -7.849000 4.372000 # C
729 17 -4.372000 -9.590000 -7.849000 # C
730 17 4.372000 -9.590000 7.849000 # C
731 17 -4.372000 9.590000 7.849000 # C
732 17 4.372000 9.590000 -7.849000 # C