LAMMPS data file. CGCMM style. atom_style atomic generated by VMD/TopoTools v1.6 on Wed Oct 05 14:45:33 EDT 2016
 768 atoms
 0 bonds
 0 angles
 0 dihedrals
 0 impropers
 1 atom types
 0 bond types
 0 angle types
 0 dihedral types
 0 improper types
 -14.60358 14.60358  xlo xhi
 -14.60358 14.60358  ylo yhi
 -14.60358 14.60358  zlo zhi

# Pair Coeffs
#
# 1  C

 Masses

 1 12.010700 # C

 Atoms

1 1 5.337586 5.314732 12.038624 # C
2 1 9.165478 2.464469 9.188385 # C
3 1 2.962167 6.661830 13.254787 # C
4 1 6.667463 2.928707 13.281941 # C
5 1 6.154965 6.127835 9.611893 # C
6 1 7.835617 1.221158 11.574425 # C
7 1 11.540886 1.248300 7.841267 # C
8 1 8.348076 4.891189 8.375235 # C
9 1 6.344703 4.509316 11.440492 # C
10 1 4.553655 6.330201 11.407249 # C
11 1 5.130335 5.112267 13.271786 # C
12 1 9.949384 3.095835 8.172879 # C
13 1 8.158360 3.062583 9.993774 # C
14 1 9.372731 1.231313 9.390867 # C
15 1 1.552107 7.055819 13.874434 # C
16 1 4.026863 5.932019 13.883423 # C
17 1 3.281709 6.857546 12.011775 # C
18 1 5.943617 4.006570 13.891433 # C
19 1 7.057699 1.526997 13.893578 # C
20 1 6.861299 3.228987 12.064163 # C
21 1 4.980799 6.724190 10.189692 # C
22 1 7.251511 4.340763 10.162284 # C
23 1 6.671561 6.655180 8.427877 # C
24 1 7.445364 0.609504 12.976097 # C
25 1 8.559442 0.611654 10.496553 # C
26 1 7.641788 2.438931 11.274128 # C
27 1 10.476172 0.619659 8.571081 # C
28 1 7.251511 4.943813 9.559251 # C
29 1 -5.337586 -5.314732 12.038624 # C
30 1 -5.337586 5.314732 -12.038624 # C
31 1 -5.337586 5.314732 12.038624 # C
32 1 -5.314732 -12.038624 -5.337586 # C
33 1 -5.314732 -12.038624 5.337586 # C
34 1 -5.314732 12.038624 -5.337586 # C
35 1 -5.314732 12.038624 5.337586 # C
36 1 -12.038624 -5.337586 -5.314732 # C
37 1 -12.038624 -5.337586 5.314732 # C
38 1 -12.038624 5.337586 -5.314732 # C
39 1 -12.038624 5.337586 5.314732 # C
40 1 12.038624 -5.337586 -5.314732 # C
41 1 12.038624 -5.337586 5.314732 # C
42 1 12.038624 5.337586 -5.314732 # C
43 1 12.038624 5.337586 5.314732 # C
44 1 5.314732 -12.038624 -5.337586 # C
45 1 5.314732 -12.038624 5.337586 # C
46 1 5.314732 12.038624 -5.337586 # C
47 1 5.314732 12.038624 5.337586 # C
48 1 5.337586 -5.314732 -12.038624 # C
49 1 5.337586 -5.314732 12.038624 # C
50 1 5.337586 5.314732 -12.038624 # C
51 1 -5.337586 -5.314732 -12.038624 # C
52 1 -9.165478 -2.464469 9.188385 # C
53 1 -9.165478 2.464469 -9.188385 # C
54 1 -9.165478 2.464469 9.188385 # C
55 1 -2.464469 -9.188385 -9.165478 # C
56 1 -2.464469 -9.188385 9.165478 # C
57 1 -2.464469 9.188385 -9.165478 # C
58 1 -2.464469 9.188385 9.165478 # C
59 1 -9.188385 -9.165478 -2.464469 # C
60 1 -9.188385 -9.165478 2.464469 # C
61 1 -9.188385 9.165478 -2.464469 # C
62 1 -9.188385 9.165478 2.464469 # C
63 1 9.188385 -9.165478 -2.464469 # C
64 1 9.188385 -9.165478 2.464469 # C
65 1 9.188385 9.165478 -2.464469 # C
66 1 9.188385 9.165478 2.464469 # C
67 1 2.464469 -9.188385 -9.165478 # C
68 1 2.464469 -9.188385 9.165478 # C
69 1 2.464469 9.188385 -9.165478 # C
70 1 2.464469 9.188385 9.165478 # C
71 1 9.165478 -2.464469 -9.188385 # C
72 1 9.165478 -2.464469 9.188385 # C
73 1 9.165478 2.464469 -9.188385 # C
74 1 -9.165478 -2.464469 -9.188385 # C
75 1 -2.962170 -6.661830 13.254785 # C
76 1 -2.962170 6.661830 -13.254785 # C
77 1 -2.962170 6.661830 13.254785 # C
78 1 -6.661830 -13.254785 -2.962170 # C
79 1 -6.661830 -13.254785 2.962170 # C
80 1 -6.661830 13.254785 -2.962170 # C
81 1 -6.661830 13.254785 2.962170 # C
82 1 -13.254785 -2.962170 -6.661830 # C
83 1 -13.254785 -2.962170 6.661830 # C
84 1 -13.254785 2.962170 -6.661830 # C
85 1 -13.254785 2.962170 6.661830 # C
86 1 13.254785 -2.962170 -6.661830 # C
87 1 13.254785 -2.962170 6.661830 # C
88 1 13.254785 2.962170 -6.661830 # C
89 1 13.254782 2.962172 6.661830 # C
90 1 6.661830 -13.254785 -2.962170 # C
91 1 6.661830 -13.254785 2.962170 # C
92 1 6.661830 13.254785 -2.962170 # C
93 1 6.661830 13.254785 2.962170 # C
94 1 2.962170 -6.661830 -13.254785 # C
95 1 2.962170 -6.661830 13.254785 # C
96 1 2.962170 6.661830 -13.254785 # C
97 1 -2.962170 -6.661830 -13.254785 # C
98 1 -6.667463 -2.928707 13.281941 # C
99 1 -6.667463 2.928707 -13.281941 # C
100 1 -6.667463 2.928707 13.281941 # C
101 1 -2.928707 -13.281941 -6.667463 # C
102 1 -2.928707 -13.281941 6.667463 # C
103 1 -2.928707 13.281941 -6.667463 # C
104 1 -2.928707 13.281941 6.667463 # C
105 1 -13.281941 -6.667463 -2.928707 # C
106 1 -13.281941 -6.667463 2.928707 # C
107 1 -13.281941 6.667463 -2.928707 # C
108 1 -13.281941 6.667463 2.928707 # C
109 1 13.281941 -6.667463 -2.928707 # C
110 1 13.281941 -6.667463 2.928707 # C
111 1 13.281941 6.667463 -2.928707 # C
112 1 13.281941 6.667463 2.928707 # C
113 1 2.928707 -13.281941 -6.667463 # C
114 1 2.928707 -13.281941 6.667463 # C
115 1 2.928707 13.281941 -6.667463 # C
116 1 2.928707 13.281941 6.667463 # C
117 1 6.667463 -2.928707 -13.281941 # C
118 1 6.667463 -2.928707 13.281941 # C
119 1 6.667463 2.928707 -13.281941 # C
120 1 -6.667463 -2.928707 -13.281941 # C
121 1 -6.154967 -6.127835 9.611890 # C
122 1 -6.154967 6.127835 -9.611890 # C
123 1 -6.154967 6.127835 9.611890 # C
124 1 -6.127835 -9.611890 -6.154967 # C
125 1 -6.127835 -9.611890 6.154967 # C
126 1 -6.127835 9.611890 -6.154967 # C
127 1 -6.127835 9.611890 6.154967 # C
128 1 -9.611890 -6.154967 -6.127835 # C
129 1 -9.611890 -6.154967 6.127835 # C
130 1 -9.611890 6.154967 -6.127835 # C
131 1 -9.611890 6.154967 6.127835 # C
132 1 9.611890 -6.154967 -6.127835 # C
133 1 9.611890 -6.154967 6.127835 # C
134 1 9.611890 6.154967 -6.127835 # C
135 1 9.611888 6.154970 6.127835 # C
136 1 6.127835 -9.611890 -6.154967 # C
137 1 6.127835 -9.611890 6.154967 # C
138 1 6.127835 9.611890 -6.154967 # C
139 1 6.127835 9.611890 6.154967 # C
140 1 6.154967 -6.127835 -9.611890 # C
141 1 6.154967 -6.127835 9.611890 # C
142 1 6.154967 6.127835 -9.611890 # C
143 1 -6.154967 -6.127835 -9.611890 # C
144 1 -7.835617 -1.221158 11.574425 # C
145 1 -7.835617 1.221158 -11.574425 # C
146 1 -7.835617 1.221158 11.574425 # C
147 1 -1.221158 -11.574425 -7.835617 # C
148 1 -1.221158 -11.574425 7.835617 # C
149 1 -1.221158 11.574425 -7.835617 # C
150 1 -1.221158 11.574425 7.835617 # C
151 1 -11.574425 -7.835617 -1.221158 # C
152 1 -11.574425 -7.835617 1.221158 # C
153 1 -11.574425 7.835617 -1.221158 # C
154 1 -11.574425 7.835617 1.221158 # C
155 1 11.574425 -7.835617 -1.221158 # C
156 1 11.574425 -7.835617 1.221158 # C
157 1 11.574425 7.835617 -1.221158 # C
158 1 11.574425 7.835617 1.221158 # C
159 1 1.221158 -11.574425 -7.835617 # C
160 1 1.221158 -11.574425 7.835617 # C
161 1 1.221158 11.574425 -7.835617 # C
162 1 1.221158 11.574425 7.835617 # C
163 1 7.835617 -1.221158 -11.574425 # C
164 1 7.835617 -1.221158 11.574425 # C
165 1 7.835617 1.221158 -11.574425 # C
166 1 -7.835617 -1.221158 -11.574425 # C
167 1 -11.540888 -1.248297 7.841267 # C
168 1 -11.540888 1.248297 -7.841267 # C
169 1 -11.540888 1.248297 7.841267 # C
170 1 -1.248297 -7.841267 -11.540888 # C
171 1 -1.248297 -7.841267 11.540888 # C
172 1 -1.248297 7.841267 -11.540888 # C
173 1 -1.248297 7.841267 11.540888 # C
174 1 -7.841267 -11.540888 -1.248297 # C
175 1 -7.841267 -11.540888 1.248297 # C
176 1 -7.841267 11.540888 -1.248297 # C
177 1 -7.841267 11.540888 1.248297 # C
178 1 7.841267 -11.540888 -1.248297 # C
179 1 7.841267 -11.540888 1.248297 # C
180 1 7.841267 11.540888 -1.248297 # C
181 1 7.841267 11.540888 1.248297 # C
182 1 1.248297 -7.841267 -11.540888 # C
183 1 1.248297 -7.841267 11.540888 # C
184 1 1.248297 7.841267 -11.540888 # C
185 1 1.248295 7.841267 11.540890 # C
186 1 11.540888 -1.248297 -7.841267 # C
187 1 11.540888 -1.248297 7.841267 # C
188 1 11.540888 1.248297 -7.841267 # C
189 1 -11.540888 -1.248297 -7.841267 # C
190 1 -8.348078 -4.891186 8.375235 # C
191 1 -8.348078 4.891186 -8.375235 # C
192 1 -8.348078 4.891186 8.375235 # C
193 1 -4.891186 -8.375235 -8.348078 # C
194 1 -4.891186 -8.375235 8.348078 # C
195 1 -4.891186 8.375235 -8.348078 # C
196 1 -4.891186 8.375235 8.348078 # C
197 1 -8.375235 -8.348078 -4.891186 # C
198 1 -8.375235 -8.348078 4.891186 # C
199 1 -8.375235 8.348078 -4.891186 # C
200 1 -8.375235 8.348078 4.891186 # C
201 1 8.375235 -8.348078 -4.891186 # C
202 1 8.375235 -8.348078 4.891186 # C
203 1 8.375235 8.348078 -4.891186 # C
204 1 8.375235 8.348078 4.891186 # C
205 1 4.891186 -8.375235 -8.348078 # C
206 1 4.891186 -8.375235 8.348078 # C
207 1 4.891186 8.375235 -8.348078 # C
208 1 4.891184 8.375235 8.348081 # C
209 1 8.348078 -4.891186 -8.375235 # C
210 1 8.348078 -4.891186 8.375235 # C
211 1 8.348078 4.891186 -8.375235 # C
212 1 -8.348078 -4.891186 -8.375235 # C
213 1 -6.344703 -4.509316 11.440492 # C
214 1 -6.344703 4.509316 -11.440492 # C
215 1 -6.344703 4.509316 11.440492 # C
216 1 -4.509316 -11.440492 -6.344703 # C
217 1 -4.509316 -11.440492 6.344703 # C
218 1 -4.509316 11.440492 -6.344703 # C
219 1 -4.509316 11.440492 6.344703 # C
220 1 -11.440492 -6.344703 -4.509316 # C
221 1 -11.440492 -6.344703 4.509316 # C
222 1 -11.440492 6.344703 -4.509316 # C
223 1 -11.440492 6.344703 4.509316 # C
224 1 11.440492 -6.344703 -4.509316 # C
225 1 11.440492 -6.344703 4.509316 # C
226 1 11.440492 6.344703 -4.509316 # C
227 1 11.440492 6.344703 4.509316 # C
228 1 4.509316 -11.440492 -6.344703 # C
229 1 4.509316 -11.440492 6.344703 # C
230 1 4.509316 11.440492 -6.344703 # C
231 1 4.509316 11.440492 6.344703 # C
232 1 6.344703 -4.509316 -11.440492 # C
233 1 6.344703 -4.509316 11.440492 # C
234 1 6.344703 4.509316 -11.440492 # C
235 1 -6.344703 -4.509316 -11.440492 # C
236 1 -4.553659 -6.330201 11.407245 # C
237 1 -4.553659 6.330201 -11.407245 # C
238 1 -4.553659 6.330201 11.407245 # C
239 1 -6.330201 -11.407245 -4.553659 # C
240 1 -6.330201 -11.407245 4.553659 # C
241 1 -6.330201 11.407245 -4.553659 # C
242 1 -6.330201 11.407245 4.553659 # C
243 1 -11.407245 -4.553659 -6.330201 # C
244 1 -11.407245 -4.553659 6.330201 # C
245 1 -11.407245 4.553659 -6.330201 # C
246 1 -11.407245 4.553659 6.330201 # C
247 1 11.407245 -4.553659 -6.330201 # C
248 1 11.407245 -4.553659 6.330201 # C
249 1 11.407245 4.553659 -6.330201 # C
250 1 11.407241 4.553663 6.330201 # C
251 1 6.330201 -11.407245 -4.553659 # C
252 1 6.330201 -11.407245 4.553659 # C
253 1 6.330201 11.407245 -4.553659 # C
254 1 6.330201 11.407245 4.553659 # C
255 1 4.553659 -6.330201 -11.407245 # C
256 1 4.553659 -6.330201 11.407245 # C
257 1 4.553659 6.330201 -11.407245 # C
258 1 -4.553659 -6.330201 -11.407245 # C
259 1 -5.130335 -5.112267 13.271786 # C
260 1 -5.130335 5.112267 -13.271786 # C
261 1 -5.130335 5.112267 13.271786 # C
262 1 -5.112267 -13.271786 -5.130335 # C
263 1 -5.112267 -13.271786 5.130335 # C
264 1 -5.112267 13.271786 -5.130335 # C
265 1 -5.112267 13.271786 5.130335 # C
266 1 -13.271786 -5.130335 -5.112267 # C
267 1 -13.271786 -5.130335 5.112267 # C
268 1 -13.271786 5.130335 -5.112267 # C
269 1 -13.271786 5.130335 5.112267 # C
270 1 13.271786 -5.130335 -5.112267 # C
271 1 13.271786 -5.130335 5.112267 # C
272 1 13.271786 5.130335 -5.112267 # C
273 1 13.271786 5.130335 5.112267 # C
274 1 5.112267 -13.271786 -5.130335 # C
275 1 5.112267 -13.271786 5.130335 # C
276 1 5.112267 13.271786 -5.130335 # C
277 1 5.112267 13.271786 5.130335 # C
278 1 5.130335 -5.112267 -13.271786 # C
279 1 5.130335 -5.112267 13.271786 # C
280 1 5.130335 5.112267 -13.271786 # C
281 1 -5.130335 -5.112267 -13.271786 # C
282 1 -9.949388 -3.095831 8.172879 # C
283 1 -9.949388 3.095831 -8.172879 # C
284 1 -9.949388 3.095831 8.172879 # C
285 1 -3.095831 -8.172879 -9.949388 # C
286 1 -3.095831 -8.172879 9.949388 # C
287 1 -3.095831 8.172879 -9.949388 # C
288 1 -3.095831 8.172879 9.949388 # C
289 1 -8.172879 -9.949388 -3.095831 # C
290 1 -8.172879 -9.949388 3.095831 # C
291 1 -8.172879 9.949388 -3.095831 # C
292 1 -8.172879 9.949388 3.095831 # C
293 1 8.172879 -9.949388 -3.095831 # C
294 1 8.172879 -9.949388 3.095831 # C
295 1 8.172879 9.949388 -3.095831 # C
296 1 8.172879 9.949388 3.095831 # C
297 1 3.095831 -8.172879 -9.949388 # C
298 1 3.095831 -8.172879 9.949388 # C
299 1 3.095831 8.172879 -9.949388 # C
300 1 3.095828 8.172879 9.949391 # C
301 1 9.949388 -3.095831 -8.172879 # C
302 1 9.949388 -3.095831 8.172879 # C
303 1 9.949388 3.095831 -8.172879 # C
304 1 -9.949388 -3.095831 -8.172879 # C
305 1 -8.158360 -3.062583 9.993774 # C
306 1 -8.158360 3.062583 -9.993774 # C
307 1 -8.158360 3.062583 9.993774 # C
308 1 -3.062583 -9.993774 -8.158360 # C
309 1 -3.062583 -9.993774 8.158360 # C
310 1 -3.062583 9.993774 -8.158360 # C
311 1 -3.062583 9.993774 8.158360 # C
312 1 -9.993774 -8.158360 -3.062583 # C
313 1 -9.993774 -8.158360 3.062583 # C
314 1 -9.993774 8.158360 -3.062583 # C
315 1 -9.993774 8.158360 3.062583 # C
316 1 9.993774 -8.158360 -3.062583 # C
317 1 9.993774 -8.158360 3.062583 # C
318 1 9.993774 8.158360 -3.062583 # C
319 1 9.993774 8.158360 3.062583 # C
320 1 3.062583 -9.993774 -8.158360 # C
321 1 3.062583 -9.993774 8.158360 # C
322 1 3.062583 9.993774 -8.158360 # C
323 1 3.062583 9.993774 8.158360 # C
324 1 8.158360 -3.062583 -9.993774 # C
325 1 8.158360 -3.062583 9.993774 # C
326 1 8.158360 3.062583 -9.993774 # C
327 1 -8.158360 -3.062583 -9.993774 # C
328 1 -9.372731 -1.231313 9.390867 # C
329 1 -9.372731 1.231313 -9.390867 # C
330 1 -9.372731 1.231313 9.390867 # C
331 1 -1.231313 -9.390867 -9.372731 # C
332 1 -1.231313 -9.390867 9.372731 # C
333 1 -1.231313 9.390867 -9.372731 # C
334 1 -1.231313 9.390867 9.372731 # C
335 1 -9.390867 -9.372731 -1.231313 # C
336 1 -9.390867 -9.372731 1.231313 # C
337 1 -9.390867 9.372731 -1.231313 # C
338 1 -9.390867 9.372731 1.231313 # C
339 1 9.390867 -9.372731 -1.231313 # C
340 1 9.390867 -9.372731 1.231313 # C
341 1 9.390867 9.372731 -1.231313 # C
342 1 9.390867 9.372731 1.231313 # C
343 1 1.231313 -9.390867 -9.372731 # C
344 1 1.231313 -9.390867 9.372731 # C
345 1 1.231313 9.390867 -9.372731 # C
346 1 1.231313 9.390867 9.372731 # C
347 1 9.372731 -1.231313 -9.390867 # C
348 1 9.372731 -1.231313 9.390867 # C
349 1 9.372731 1.231313 -9.390867 # C
350 1 -9.372731 -1.231313 -9.390867 # C
351 1 -1.552109 -7.055819 13.874431 # C
352 1 -1.552109 7.055819 -13.874431 # C
353 1 -1.552109 7.055819 13.874431 # C
354 1 -7.055819 -13.874431 -1.552109 # C
355 1 -7.055819 -13.874431 1.552109 # C
356 1 -7.055819 13.874431 -1.552109 # C
357 1 -7.055819 13.874431 1.552109 # C
358 1 -13.874431 -1.552109 -7.055819 # C
359 1 -13.874431 -1.552109 7.055819 # C
360 1 -13.874431 1.552109 -7.055819 # C
361 1 -13.874431 1.552109 7.055819 # C
362 1 13.874431 -1.552109 -7.055819 # C
363 1 13.874431 -1.552109 7.055819 # C
364 1 13.874431 1.552109 -7.055819 # C
365 1 13.874429 1.552111 7.055819 # C
366 1 7.055819 -13.874431 -1.552109 # C
367 1 7.055819 -13.874431 1.552109 # C
368 1 7.055819 13.874431 -1.552109 # C
369 1 7.055819 13.874431 1.552109 # C
370 1 1.552109 -7.055819 -13.874431 # C
371 1 1.552109 -7.055819 13.874431 # C
372 1 1.552109 7.055819 -13.874431 # C
373 1 -1.552109 -7.055819 -13.874431 # C
374 1 -4.026863 -5.932019 13.883423 # C
375 1 -4.026863 5.932019 -13.883423 # C
376 1 -4.026863 5.932019 13.883423 # C
377 1 -5.932019 -13.883423 -4.026863 # C
378 1 -5.932019 -13.883423 4.026863 # C
379 1 -5.932019 13.883423 -4.026863 # C
380 1 -5.932019 13.883423 4.026863 # C
381 1 -13.883423 -4.026863 -5.932019 # C
382 1 -13.883423 -4.026863 5.932019 # C
383 1 -13.883423 4.026863 -5.932019 # C
384 1 -13.883423 4.026863 5.932019 # C
385 1 13.883423 -4.026863 -5.932019 # C
386 1 13.883423 -4.026863 5.932019 # C
387 1 13.883423 4.026863 -5.932019 # C
388 1 13.883423 4.026863 5.932019 # C
389 1 5.932019 -13.883423 -4.026863 # C
390 1 5.932019 -13.883423 4.026863 # C
391 1 5.932019 13.883423 -4.026863 # C
392 1 5.932019 13.883423 4.026863 # C
393 1 4.026863 -5.932019 -13.883423 # C
394 1 4.026863 -5.932019 13.883423 # C
395 1 4.026863 5.932019 -13.883423 # C
396 1 -4.026863 -5.932019 -13.883423 # C
397 1 -3.281715 -6.857546 12.011769 # C
398 1 -3.281715 6.857546 -12.011769 # C
399 1 -3.281715 6.857546 12.011769 # C
400 1 -6.857546 -12.011769 -3.281715 # C
401 1 -6.857546 -12.011769 3.281715 # C
402 1 -6.857546 12.011769 -3.281715 # C
403 1 -6.857546 12.011769 3.281715 # C
404 1 -12.011769 -3.281715 -6.857546 # C
405 1 -12.011769 -3.281715 6.857546 # C
406 1 -12.011769 3.281715 -6.857546 # C
407 1 -12.011769 3.281715 6.857546 # C
408 1 12.011769 -3.281715 -6.857546 # C
409 1 12.011769 -3.281715 6.857546 # C
410 1 12.011769 3.281715 -6.857546 # C
411 1 12.011762 3.281721 6.857546 # C
412 1 6.857546 -12.011769 -3.281715 # C
413 1 6.857546 -12.011769 3.281715 # C
414 1 6.857546 12.011769 -3.281715 # C
415 1 6.857546 12.011769 3.281715 # C
416 1 3.281715 -6.857546 -12.011769 # C
417 1 3.281715 -6.857546 12.011769 # C
418 1 3.281715 6.857546 -12.011769 # C
419 1 -3.281715 -6.857546 -12.011769 # C
420 1 -5.943617 -4.006570 13.891433 # C
421 1 -5.943617 4.006570 -13.891433 # C
422 1 -5.943617 4.006570 13.891433 # C
423 1 -4.006570 -13.891433 -5.943617 # C
424 1 -4.006570 -13.891433 5.943617 # C
425 1 -4.006570 13.891433 -5.943617 # C
426 1 -4.006570 13.891433 5.943617 # C
427 1 -13.891433 -5.943617 -4.006570 # C
428 1 -13.891433 -5.943617 4.006570 # C
429 1 -13.891433 5.943617 -4.006570 # C
430 1 -13.891433 5.943617 4.006570 # C
431 1 13.891433 -5.943617 -4.006570 # C
432 1 13.891433 -5.943617 4.006570 # C
433 1 13.891433 5.943617 -4.006570 # C
434 1 13.891433 5.943617 4.006570 # C
435 1 4.006570 -13.891433 -5.943617 # C
436 1 4.006570 -13.891433 5.943617 # C
437 1 4.006570 13.891433 -5.943617 # C
438 1 4.006570 13.891433 5.943617 # C
439 1 5.943617 -4.006570 -13.891433 # C
440 1 5.943617 -4.006570 13.891433 # C
441 1 5.943617 4.006570 -13.891433 # C
442 1 -5.943617 -4.006570 -13.891433 # C
443 1 -7.057699 -1.526997 13.893578 # C
444 1 -7.057699 1.526997 -13.893578 # C
445 1 -7.057699 1.526997 13.893578 # C
446 1 -1.526997 -13.893578 -7.057699 # C
447 1 -1.526997 -13.893578 7.057699 # C
448 1 -1.526997 13.893578 -7.057699 # C
449 1 -1.526997 13.893578 7.057699 # C
450 1 -13.893578 -7.057699 -1.526997 # C
451 1 -13.893578 -7.057699 1.526997 # C
452 1 -13.893578 7.057699 -1.526997 # C
453 1 -13.893578 7.057699 1.526997 # C
454 1 13.893578 -7.057699 -1.526997 # C
455 1 13.893578 -7.057699 1.526997 # C
456 1 13.893578 7.057699 -1.526997 # C
457 1 13.893578 7.057699 1.526997 # C
458 1 1.526997 -13.893578 -7.057699 # C
459 1 1.526997 -13.893578 7.057699 # C
460 1 1.526997 13.893578 -7.057699 # C
461 1 1.526997 13.893578 7.057699 # C
462 1 7.057699 -1.526997 -13.893578 # C
463 1 7.057699 -1.526997 13.893578 # C
464 1 7.057699 1.526997 -13.893578 # C
465 1 -7.057699 -1.526997 -13.893578 # C
466 1 -6.861299 -3.228987 12.064163 # C
467 1 -6.861299 3.228987 -12.064163 # C
468 1 -6.861299 3.228987 12.064163 # C
469 1 -3.228987 -12.064163 -6.861299 # C
470 1 -3.228987 -12.064163 6.861299 # C
471 1 -3.228987 12.064163 -6.861299 # C
472 1 -3.228987 12.064163 6.861299 # C
473 1 -12.064163 -6.861299 -3.228987 # C
474 1 -12.064163 -6.861299 3.228987 # C
475 1 -12.064163 6.861299 -3.228987 # C
476 1 -12.064163 6.861299 3.228987 # C
477 1 12.064163 -6.861299 -3.228987 # C
478 1 12.064163 -6.861299 3.228987 # C
479 1 12.064163 6.861299 -3.228987 # C
480 1 12.064163 6.861299 3.228987 # C
481 1 3.228987 -12.064163 -6.861299 # C
482 1 3.228987 -12.064163 6.861299 # C
483 1 3.228987 12.064163 -6.861299 # C
484 1 3.228987 12.064163 6.861299 # C
485 1 6.861299 -3.228987 -12.064163 # C
486 1 6.861299 -3.228987 12.064163 # C
487 1 6.861299 3.228987 -12.064163 # C
488 1 -6.861299 -3.228987 -12.064163 # C
489 1 -4.980805 -6.724190 10.189685 # C
490 1 -4.980805 6.724190 -10.189685 # C
491 1 -4.980805 6.724190 10.189685 # C
492 1 -6.724190 -10.189685 -4.980805 # C
493 1 -6.724190 -10.189685 4.980805 # C
494 1 -6.724190 10.189685 -4.980805 # C
495 1 -6.724190 10.189685 4.980805 # C
496 1 -10.189685 -4.980805 -6.724190 # C
497 1 -10.189685 -4.980805 6.724190 # C
498 1 -10.189685 4.980805 -6.724190 # C
499 1 -10.189685 4.980805 6.724190 # C
500 1 10.189685 -4.980805 -6.724190 # C
501 1 10.189685 -4.980805 6.724190 # C
502 1 10.189685 4.980805 -6.724190 # C
503 1 10.189679 4.980811 6.724190 # C
504 1 6.724190 -10.189685 -4.980805 # C
505 1 6.724190 -10.189685 4.980805 # C
506 1 6.724190 10.189685 -4.980805 # C
507 1 6.724190 10.189685 4.980805 # C
508 1 4.980805 -6.724190 -10.189685 # C
509 1 4.980805 -6.724190 10.189685 # C
510 1 4.980805 6.724190 -10.189685 # C
511 1 -4.980805 -6.724190 -10.189685 # C
512 1 -7.251511 -4.340763 10.162284 # C
513 1 -7.251511 4.340763 -10.162284 # C
514 1 -7.251511 4.340763 10.162284 # C
515 1 -4.340763 -10.162284 -7.251511 # C
516 1 -4.340763 -10.162284 7.251511 # C
517 1 -4.340763 10.162284 -7.251511 # C
518 1 -4.340763 10.162284 7.251511 # C
519 1 -10.162284 -7.251511 -4.340763 # C
520 1 -10.162284 -7.251511 4.340763 # C
521 1 -10.162284 7.251511 -4.340763 # C
522 1 -10.162284 7.251511 4.340763 # C
523 1 10.162284 -7.251511 -4.340763 # C
524 1 10.162284 -7.251511 4.340763 # C
525 1 10.162284 7.251511 -4.340763 # C
526 1 10.162284 7.251511 4.340763 # C
527 1 4.340763 -10.162284 -7.251511 # C
528 1 4.340763 -10.162284 7.251511 # C
529 1 4.340763 10.162284 -7.251511 # C
530 1 4.340763 10.162284 7.251511 # C
531 1 7.251511 -4.340763 -10.162284 # C
532 1 7.251511 -4.340763 10.162284 # C
533 1 7.251511 4.340763 -10.162284 # C
534 1 -7.251511 -4.340763 -10.162284 # C
535 1 -6.671563 -6.655180 8.427874 # C
536 1 -6.671563 6.655180 -8.427874 # C
537 1 -6.671563 6.655180 8.427874 # C
538 1 -6.655180 -8.427874 -6.671563 # C
539 1 -6.655180 -8.427874 6.671563 # C
540 1 -6.655180 8.427874 -6.671563 # C
541 1 -6.655180 8.427874 6.671563 # C
542 1 -8.427874 -6.671563 -6.655180 # C
543 1 -8.427874 -6.671563 6.655180 # C
544 1 -8.427874 6.671563 -6.655180 # C
545 1 -8.427874 6.671563 6.655180 # C
546 1 8.427874 -6.671563 -6.655180 # C
547 1 8.427874 -6.671563 6.655180 # C
548 1 8.427874 6.671563 -6.655180 # C
549 1 8.427871 6.671566 6.655180 # C
550 1 6.655180 -8.427874 -6.671563 # C
551 1 6.655180 -8.427874 6.671563 # C
552 1 6.655180 8.427874 -6.671563 # C
553 1 6.655180 8.427874 6.671563 # C
554 1 6.671563 -6.655180 -8.427874 # C
555 1 6.671563 -6.655180 8.427874 # C
556 1 6.671563 6.655180 -8.427874 # C
557 1 -6.671563 -6.655180 -8.427874 # C
558 1 -7.445364 -0.609504 12.976097 # C
559 1 -7.445364 0.609504 -12.976097 # C
560 1 -7.445364 0.609504 12.976097 # C
561 1 -0.609504 -12.976097 -7.445364 # C
562 1 -0.609504 -12.976097 7.445364 # C
563 1 -0.609504 12.976097 -7.445364 # C
564 1 -0.609504 12.976097 7.445364 # C
565 1 -12.976097 -7.445364 -0.609504 # C
566 1 -12.976097 -7.445364 0.609504 # C
567 1 -12.976097 7.445364 -0.609504 # C
568 1 -12.976097 7.445364 0.609504 # C
569 1 12.976097 -7.445364 -0.609504 # C
570 1 12.976097 -7.445364 0.609504 # C
571 1 12.976097 7.445364 -0.609504 # C
572 1 12.976097 7.445364 0.609504 # C
573 1 0.609504 -12.976097 -7.445364 # C
574 1 0.609504 -12.976097 7.445364 # C
575 1 0.609504 12.976097 -7.445364 # C
576 1 0.609504 12.976097 7.445364 # C
577 1 7.445364 -0.609504 -12.976097 # C
578 1 7.445364 -0.609504 12.976097 # C
579 1 7.445364 0.609504 -12.976097 # C
580 1 -7.445364 -0.609504 -12.976097 # C
581 1 -8.559442 -0.611654 10.496553 # C
582 1 -8.559442 0.611654 -10.496553 # C
583 1 -8.559442 0.611654 10.496553 # C
584 1 -0.611654 -10.496553 -8.559442 # C
585 1 -0.611654 -10.496553 8.559442 # C
586 1 -0.611654 10.496553 -8.559442 # C
587 1 -0.611654 10.496553 8.559442 # C
588 1 -10.496553 -8.559442 -0.611654 # C
589 1 -10.496553 -8.559442 0.611654 # C
590 1 -10.496553 8.559442 -0.611654 # C
591 1 -10.496553 8.559442 0.611654 # C
592 1 10.496553 -8.559442 -0.611654 # C
593 1 10.496553 -8.559442 0.611654 # C
594 1 10.496553 8.559442 -0.611654 # C
595 1 10.496553 8.559442 0.611654 # C
596 1 0.611654 -10.496553 -8.559442 # C
597 1 0.611654 -10.496553 8.559442 # C
598 1 0.611654 10.496553 -8.559442 # C
599 1 0.611654 10.496553 8.559442 # C
600 1 8.559442 -0.611654 -10.496553 # C
601 1 8.559442 -0.611654 10.496553 # C
602 1 8.559442 0.611654 -10.496553 # C
603 1 -8.559442 -0.611654 -10.496553 # C
604 1 -7.641788 -2.438931 11.274128 # C
605 1 -7.641788 2.438931 -11.274128 # C
606 1 -7.641788 2.438931 11.274128 # C
607 1 -2.438931 -11.274128 -7.641788 # C
608 1 -2.438931 -11.274128 7.641788 # C
609 1 -2.438931 11.274128 -7.641788 # C
610 1 -2.438931 11.274128 7.641788 # C
611 1 -11.274128 -7.641788 -2.438931 # C
612 1 -11.274128 -7.641788 2.438931 # C
613 1 -11.274128 7.641788 -2.438931 # C
614 1 -11.274128 7.641788 2.438931 # C
615 1 11.274128 -7.641788 -2.438931 # C
616 1 11.274128 -7.641788 2.438931 # C
617 1 11.274128 7.641788 -2.438931 # C
618 1 11.274128 7.641788 2.438931 # C
619 1 2.438931 -11.274128 -7.641788 # C
620 1 2.438931 -11.274128 7.641788 # C
621 1 2.438931 11.274128 -7.641788 # C
622 1 2.438931 11.274128 7.641788 # C
623 1 7.641788 -2.438931 -11.274128 # C
624 1 7.641788 -2.438931 11.274128 # C
625 1 7.641788 2.438931 -11.274128 # C
626 1 -7.641788 -2.438931 -11.274128 # C
627 1 -10.476172 -0.619659 8.571081 # C
628 1 -10.476172 0.619659 -8.571081 # C
629 1 -10.476172 0.619659 8.571081 # C
630 1 -0.619659 -8.571081 -10.476172 # C
631 1 -0.619659 -8.571081 10.476172 # C
632 1 -0.619659 8.571081 -10.476172 # C
633 1 -0.619659 8.571081 10.476172 # C
634 1 -8.571081 -10.476172 -0.619659 # C
635 1 -8.571081 -10.476172 0.619659 # C
636 1 -8.571081 10.476172 -0.619659 # C
637 1 -8.571081 10.476172 0.619659 # C
638 1 8.571081 -10.476172 -0.619659 # C
639 1 8.571081 -10.476172 0.619659 # C
640 1 8.571081 10.476172 -0.619659 # C
641 1 8.571081 10.476172 0.619659 # C
642 1 0.619659 -8.571081 -10.476172 # C
643 1 0.619659 -8.571081 10.476172 # C
644 1 0.619659 8.571081 -10.476172 # C
645 1 0.619659 8.571081 10.476172 # C
646 1 10.476172 -0.619659 -8.571081 # C
647 1 10.476172 -0.619659 8.571081 # C
648 1 10.476172 0.619659 -8.571081 # C
649 1 -10.476172 -0.619659 -8.571081 # C
650 1 12.950945 0.628641 7.447256 # C
651 1 -12.950948 -0.628638 7.447256 # C
652 1 -12.950948 0.628638 -7.447256 # C
653 1 -12.950948 0.628638 7.447256 # C
654 1 -0.628638 -7.447256 -12.950948 # C
655 1 -0.628638 -7.447256 12.950948 # C
656 1 -0.628638 7.447256 -12.950948 # C
657 1 -0.628638 7.447256 12.950948 # C
658 1 -7.447256 -12.950948 -0.628638 # C
659 1 -7.447256 -12.950948 0.628638 # C
660 1 -7.447256 12.950948 -0.628638 # C
661 1 -7.447256 12.950948 0.628638 # C
662 1 7.447256 -12.950948 -0.628638 # C
663 1 7.447256 -12.950948 0.628638 # C
664 1 7.447256 12.950948 -0.628638 # C
665 1 7.447256 12.950948 0.628638 # C
666 1 0.628638 -7.447256 -12.950948 # C
667 1 0.628638 -7.447256 12.950948 # C
668 1 0.628638 7.447256 -12.950948 # C
669 1 0.628636 7.447256 12.950950 # C
670 1 12.950948 -0.628638 -7.447256 # C
671 1 12.950948 -0.628638 7.447256 # C
672 1 12.950948 0.628638 -7.447256 # C
673 1 -12.950948 -0.628638 -7.447256 # C
674 1 11.221349 2.491320 7.645546 # C
675 1 -11.221356 -2.491314 7.645546 # C
676 1 -11.221356 2.491314 -7.645546 # C
677 1 -11.221356 2.491314 7.645546 # C
678 1 -2.491314 -7.645546 -11.221356 # C
679 1 -2.491314 -7.645546 11.221356 # C
680 1 -2.491314 7.645546 -11.221356 # C
681 1 -2.491314 7.645546 11.221356 # C
682 1 -7.645546 -11.221356 -2.491314 # C
683 1 -7.645546 -11.221356 2.491314 # C
684 1 -7.645546 11.221356 -2.491314 # C
685 1 -7.645546 11.221356 2.491314 # C
686 1 7.645546 -11.221356 -2.491314 # C
687 1 7.645546 -11.221356 2.491314 # C
688 1 7.645546 11.221356 -2.491314 # C
689 1 7.645546 11.221356 2.491314 # C
690 1 2.491314 -7.645546 -11.221356 # C
691 1 2.491314 -7.645546 11.221356 # C
692 1 2.491314 7.645546 -11.221356 # C
693 1 2.491307 7.645546 11.221362 # C
694 1 11.221356 -2.491314 -7.645546 # C
695 1 11.221356 -2.491314 7.645546 # C
696 1 11.221356 2.491314 -7.645546 # C
697 1 -11.221356 -2.491314 -7.645546 # C
698 1 -7.251511 -4.943813 9.559251 # C
699 1 -7.251511 4.943813 -9.559251 # C
700 1 -7.251511 4.943813 9.559251 # C
701 1 -4.943813 -9.559251 -7.251511 # C
702 1 -4.943813 -9.559251 7.251511 # C
703 1 -4.943813 9.559251 -7.251511 # C
704 1 -4.943813 9.559251 7.251511 # C
705 1 -9.559251 -7.251511 -4.943813 # C
706 1 -9.559251 -7.251511 4.943813 # C
707 1 -9.559251 7.251511 -4.943813 # C
708 1 -9.559251 7.251511 4.943813 # C
709 1 9.559251 -7.251511 -4.943813 # C
710 1 9.559251 -7.251511 4.943813 # C
711 1 9.559251 7.251511 -4.943813 # C
712 1 9.559251 7.251511 4.943813 # C
713 1 4.943813 -9.559251 -7.251511 # C
714 1 4.943813 -9.559251 7.251511 # C
715 1 4.943813 9.559251 -7.251511 # C
716 1 4.943813 9.559251 7.251511 # C
717 1 7.251511 -4.943813 -9.559251 # C
718 1 7.251511 -4.943813 9.559251 # C
719 1 7.251511 4.943813 -9.559251 # C
720 1 -7.251511 -4.943813 -9.559251 # C
721 1 9.522234 4.313385 7.778868 # C
722 1 -9.522241 -4.313379 7.778868 # C
723 1 -9.522241 4.313379 -7.778868 # C
724 1 -9.522241 4.313379 7.778868 # C
725 1 -4.313379 -7.778868 -9.522241 # C
726 1 -4.313379 -7.778868 9.522241 # C
727 1 -4.313379 7.778868 -9.522241 # C
728 1 -4.313379 7.778868 9.522241 # C
729 1 -7.778868 -9.522241 -4.313379 # C
730 1 -7.778868 -9.522241 4.313379 # C
731 1 -7.778868 9.522241 -4.313379 # C
732 1 -7.778868 9.522241 4.313379 # C
733 1 7.778868 -9.522241 -4.313379 # C
734 1 7.778868 -9.522241 4.313379 # C
735 1 7.778868 9.522241 -4.313379 # C
736 1 7.778868 9.522241 4.313379 # C
737 1 4.313379 -7.778868 -9.522241 # C
738 1 4.313379 -7.778868 9.522241 # C
739 1 4.313379 7.778868 -9.522241 # C
740 1 4.313372 7.778868 9.522247 # C
741 1 9.522241 -4.313379 -7.778868 # C
742 1 9.522241 -4.313379 7.778868 # C
743 1 9.522241 4.313379 -7.778868 # C
744 1 -9.522241 -4.313379 -7.778868 # C
745 1 7.831504 6.075211 7.847902 # C
746 1 -7.831507 -6.075208 7.847902 # C
747 1 -7.831507 6.075208 -7.847902 # C
748 1 -7.831507 6.075208 7.847902 # C
749 1 -6.075208 -7.847902 -7.831507 # C
750 1 -6.075208 -7.847902 7.831507 # C
751 1 -6.075208 7.847902 -7.831507 # C
752 1 -6.075208 7.847902 7.831507 # C
753 1 -7.847902 -7.831507 -6.075208 # C
754 1 -7.847902 -7.831507 6.075208 # C
755 1 -7.847902 7.831507 -6.075208 # C
756 1 -7.847902 7.831507 6.075208 # C
757 1 7.847902 -7.831507 -6.075208 # C