768
Atoms. Timestep: 34000
1 5.3582 4.24256 11.351
1 9.5018 2.55406 8.70282
1 2.96089 5.18793 12.753
1 7.04434 2.42913 12.8753
1 5.44111 4.80715 8.28463
1 9.2452 1.35472 11.381
1 11.5166 1.35095 7.01185
1 7.40702 4.07833 7.07986
1 6.59822 3.78257 10.816
1 4.42417 5.07094 10.6416
1 5.06436 3.91345 12.7329
1 9.68702 3.01301 7.3543
1 8.55543 3.05508 9.63255
1 10.2371 1.39055 9.12273
1 1.73828 5.60764 13.4485
1 3.96894 4.47595 13.4621
1 3.30025 5.57396 11.4029
1 5.94363 3.07245 13.4741
1 7.91846 1.46411 13.4697
1 7.40184 2.92581 11.642
1 4.57182 5.45803 9.24332
1 7.32511 3.81626 9.55969
1 5.24046 4.99746 6.85518
1 8.77057 0.712709 12.5763
1 9.97897 0.708772 10.3558
1 8.56646 2.50364 10.9604
1 11.0186 0.701456 8.16074
1 6.7601 4.19879 8.37653
1 -5.35791 -4.24256 11.351
1 -5.35782 4.24257 -11.351
1 -5.35782 4.24257 11.351
1 -4.24253 -11.351 -5.35801
1 -4.24253 -11.351 5.35801
1 -4.24232 11.351 -5.35801
1 -4.24232 11.351 5.35801
1 -11.3509 -5.35801 -4.24257
1 -11.3509 -5.35801 4.24257
1 -11.3508 5.35801 -4.24256
1 -11.3508 5.35801 4.24256
1 11.3511 -5.35801 -4.24256
1 11.3511 -5.35801 4.24256
1 11.3512 5.35801 -4.24257
1 11.3512 5.35801 4.24257
1 4.2426 -11.351 -5.35801
1 4.2426 -11.351 5.35801
1 4.24281 11.351 -5.358
1 4.24281 11.351 5.35801
1 5.35811 -4.24257 -11.351
1 5.35811 -4.24257 11.351
1 5.35819 4.24256 -11.351
1 -5.35791 -4.24256 -11.351
1 -9.50151 -2.55406 8.70282
1 -9.50139 2.55403 -8.70277
1 -9.50139 2.55403 8.70277
1 -2.55398 -8.70278 -9.50159
1 -2.55398 -8.70278 9.50159
1 -2.55383 8.70281 -9.5016
1 -2.55382 8.70281 9.5016
1 -8.70273 -9.50158 -2.55404
1 -8.70273 -9.50158 2.55404
1 -8.70258 9.50161 -2.55405
1 -8.70258 9.50161 2.55405
1 8.70286 -9.50161 -2.55405
1 8.70286 -9.50161 2.55405
1 8.70302 9.50158 -2.55403
1 8.70302 9.50158 2.55404
1 2.55411 -8.70281 -9.5016
1 2.55411 -8.70281 9.5016
1 2.55426 8.70278 -9.50159
1 2.55426 8.70278 9.50159
1 9.50168 -2.55403 -8.70277
1 9.50168 -2.55403 8.70277
1 9.5018 2.55406 -8.70282
1 -9.50151 -2.55406 -8.70282
1 -2.96061 -5.18793 12.753
1 -2.96052 5.18794 -12.753
1 -2.96052 5.18794 12.753
1 -5.18791 -12.753 -2.9607
1 -5.18791 -12.753 2.9607
1 -5.18768 12.753 -2.96071
1 -5.18768 12.753 2.96071
1 -12.753 -2.96071 -5.18794
1 -12.753 -2.96071 5.18794
1 -12.7528 2.9607 -5.18792
1 -12.7528 2.9607 5.18793
1 12.7531 -2.9607 -5.18792
1 12.7531 -2.9607 5.18793
1 12.7532 2.96071 -5.18794
1 12.7532 2.96071 5.18794
1 5.18796 -12.753 -2.96071
1 5.18796 -12.753 2.96071
1 5.18819 12.753 -2.9607
1 5.18819 12.753 2.9607
1 2.9608 -5.18794 -12.753
1 2.9608 -5.18794 12.753
1 2.96089 5.18793 -12.753
1 -2.96061 -5.18793 -12.753
1 -7.04406 -2.42913 12.8753
1 -7.044 2.42914 -12.8753
1 -7.044 2.42914 12.8753
1 -2.42912 -12.8753 -7.04417
1 -2.42912 -12.8753 7.04417
1 -2.42887 12.8753 -7.04417
1 -2.42887 12.8753 7.04417
1 -12.8752 -7.04417 -2.42913
1 -12.8752 -7.04417 2.42914
1 -12.8751 7.04418 -2.42914
1 -12.8751 7.04417 2.42914
1 12.8754 -7.04418 -2.42914
1 12.8754 -7.04417 2.42914
1 12.8755 7.04417 -2.42913
1 12.8755 7.04417 2.42914
1 2.42915 -12.8753 -7.04417
1 2.42915 -12.8753 7.04417
1 2.42941 12.8753 -7.04417
1 2.42941 12.8753 7.04417
1 7.04428 -2.42914 -12.8753
1 7.04428 -2.42914 12.8753
1 7.04434 2.42913 -12.8753
1 -7.04406 -2.42913 -12.8753
1 -5.44082 -4.80715 8.28463
1 -5.44072 4.80718 -8.28464
1 -5.44072 4.80718 8.28464
1 -4.8071 -8.28462 -5.4409
1 -4.8071 -8.28462 5.4409
1 -4.80695 8.28465 -5.44092
1 -4.80695 8.28465 5.44093
1 -8.28456 -5.44091 -4.80717
1 -8.28456 -5.44091 4.80717
1 -8.28442 5.44092 -4.80716
1 -8.28442 5.44092 4.80716
1 8.28471 -5.44092 -4.80716
1 8.2847 -5.44092 4.80716
1 8.28484 5.44091 -4.80717
1 8.28484 5.44091 4.80717
1 4.80723 -8.28465 -5.44092
1 4.80723 -8.28465 5.44093
1 4.80738 8.28462 -5.4409
1 4.80738 8.28462 5.4409
1 5.441 -4.80719 -8.28464
1 5.441 -4.80718 8.28464
1 5.44111 4.80715 -8.28463
1 -5.44082 -4.80715 -8.28463
1 -9.24492 -1.35472 11.381
1 -9.24485 1.35472 -11.3809
1 -9.24485 1.35472 11.3809
1 -1.35469 -11.3809 -9.24503
1 -1.35469 -11.3809 9.24503
1 -1.35447 11.381 -9.24502
1 -1.35447 11.381 9.24502
1 -11.3809 -9.24502 -1.35472
1 -11.3809 -9.24502 1.35472
1 -11.3807 9.24503 -1.35472
1 -11.3807 9.24503 1.35472
1 11.381 -9.24503 -1.35472
1 11.381 -9.24503 1.35472
1 11.3812 9.24502 -1.35472
1 11.3812 9.24502 1.35472
1 1.35475 -11.381 -9.24502
1 1.35475 -11.381 9.24502
1 1.35497 11.3809 -9.24503
1 1.35497 11.3809 9.24503
1 9.24513 -1.35472 -11.3809
1 9.24513 -1.35472 11.3809
1 9.2452 1.35472 -11.381
1 -9.24492 -1.35472 -11.381
1 -11.5163 -1.35095 7.01185
1 -11.5162 1.35092 -7.0118
1 -11.5162 1.35092 7.0118
1 -1.35085 -7.01181 -11.5164
1 -1.35085 -7.01182 11.5164
1 -1.35073 7.01184 -11.5164
1 -1.35073 7.01184 11.5164
1 -7.01177 -11.5164 -1.35093
1 -7.01177 -11.5164 1.35093
1 -7.01159 11.5164 -1.35094
1 -7.01159 11.5164 1.35094
1 7.01188 -11.5164 -1.35094
1 7.01188 -11.5164 1.35094
1 7.01206 11.5164 -1.35093
1 7.01206 11.5164 1.35093
1 1.35102 -7.01184 -11.5164
1 1.35102 -7.01184 11.5164
1 1.35113 7.01181 -11.5164
1 1.35113 7.01181 11.5164
1 11.5165 -1.35092 -7.0118
1 11.5165 -1.35092 7.0118
1 11.5166 1.35095 -7.01185
1 -11.5163 -1.35095 -7.01185
1 -7.40674 -4.07832 7.07986
1 -7.40661 4.07832 -7.07984
1 -7.40661 4.07832 7.07984
1 -4.07825 -7.07983 -7.40681
1 -4.07825 -7.07983 7.40681
1 -4.07811 7.07986 -7.40683
1 -4.07811 7.07986 7.40683
1 -7.07977 -7.4068 -4.07831
1 -7.07977 -7.4068 4.07831
1 -7.07964 7.40684 -4.07834
1 -7.07964 7.40683 4.07834
1 7.07992 -7.40684 -4.07833
1 7.07992 -7.40684 4.07834
1 7.08006 7.4068 -4.07831
1 7.08006 7.4068 4.07831
1 4.0784 -7.07986 -7.40683
1 4.0784 -7.07986 7.40683
1 4.07853 7.07983 -7.40681
1 4.07853 7.07983 7.40681
1 7.4069 -4.07832 -7.07984
1 7.40689 -4.07832 7.07984
1 7.40702 4.07832 -7.07985
1 -7.40674 -4.07833 -7.07985
1 -6.59794 -3.78257 10.816
1 -6.59785 3.78257 -10.8159
1 -6.59785 3.78257 10.816
1 -3.78253 -10.8159 -6.59803
1 -3.78253 -10.8159 6.59803
1 -3.78232 10.816 -6.59804
1 -3.78232 10.816 6.59804
1 -10.8159 -6.59803 -3.78256
1 -10.8159 -6.59803 3.78256
1 -10.8157 6.59804 -3.78257
1 -10.8157 6.59804 3.78257
1 10.816 -6.59804 -3.78257
1 10.816 -6.59804 3.78257
1 10.8162 6.59803 -3.78256
1 10.8162 6.59803 3.78256
1 3.78261 -10.816 -6.59804
1 3.7826 -10.816 6.59804
1 3.78281 10.8159 -6.59803
1 3.78281 10.8159 6.59803
1 6.59813 -3.78257 -10.8159
1 6.59813 -3.78257 10.816
1 6.59822 3.78257 -10.816
1 -6.59794 -3.78257 -10.816
1 -4.42389 -5.07094 10.6416
1 -4.42379 5.07097 -10.6416
1 -4.42379 5.07097 10.6416
1 -5.07091 -10.6416 -4.42397
1 -5.0709 -10.6416 4.42397
1 -5.07073 10.6416 -4.42399
1 -5.07073 10.6416 4.42399
1 -10.6415 -4.42399 -5.07097
1 -10.6415 -4.42399 5.07097
1 -10.6414 4.42397 -5.07094
1 -10.6414 4.42397 5.07095
1 10.6417 -4.42397 -5.07094
1 10.6417 -4.42397 5.07095
1 10.6418 4.42399 -5.07097
1 10.6418 4.42399 5.07097
1 5.07101 -10.6416 -4.42399
1 5.07101 -10.6416 4.42399
1 5.07119 10.6416 -4.42397
1 5.07119 10.6416 4.42397
1 4.42408 -5.07097 -10.6416
1 4.42408 -5.07097 10.6416
1 4.42417 5.07094 -10.6416
1 -4.42389 -5.07094 -10.6416
1 -5.06407 -3.91345 12.7329
1 -5.06399 3.91346 -12.7329
1 -5.06399 3.91346 12.7329
1 -3.91344 -12.7329 -5.06417
1 -3.91344 -12.7329 5.06417
1 -3.91319 12.7329 -5.06418
1 -3.91319 12.7329 5.06418
1 -12.7328 -5.06417 -3.91346
1 -12.7328 -5.06418 3.91346
1 -12.7327 5.06417 -3.91346
1 -12.7327 5.06417 3.91346
1 12.733 -5.06417 -3.91346
1 12.733 -5.06417 3.91346
1 12.7331 5.06418 -3.91346
1 12.7331 5.06418 3.91346
1 3.91347 -12.7329 -5.06418
1 3.91347 -12.7329 5.06418
1 3.91372 12.7329 -5.06417
1 3.91372 12.7329 5.06417
1 5.06428 -3.91346 -12.7329
1 5.06428 -3.91346 12.7329
1 5.06436 3.91345 -12.7329
1 -5.06407 -3.91345 -12.7329
1 -9.68673 -3.01301 7.3543
1 -9.6866 3.01296 -7.35424
1 -9.6866 3.01296 7.35424
1 -3.01291 -7.35425 -9.6868
1 -3.01291 -7.35425 9.6868
1 -3.01278 7.35429 -9.68682
1 -3.01278 7.35429 9.68682
1 -7.35421 -9.68679 -3.01297
1 -7.35421 -9.68679 3.01297
1 -7.35405 9.68683 -3.013
1 -7.35405 9.68683 3.013
1 7.35433 -9.68683 -3.013
1 7.35433 -9.68683 3.013
1 7.35449 9.68679 -3.01297
1 7.35449 9.68679 3.01297
1 3.01307 -7.35429 -9.68682
1 3.01306 -7.35429 9.68682
1 3.01319 7.35425 -9.6868
1 3.01319 7.35425 9.6868
1 9.68688 -3.01296 -7.35424
1 9.68688 -3.01296 7.35424
1 9.68702 3.01301 -7.3543
1 -9.68673 -3.01301 -7.3543
1 -8.55514 -3.05508 9.63255
1 -8.55503 3.05505 -9.63251
1 -8.55503 3.05505 9.63251
1 -3.05501 -9.63251 -8.55522
1 -3.05501 -9.63251 8.55522
1 -3.05483 9.63254 -8.55523
1 -3.05483 9.63254 8.55523
1 -9.63246 -8.55522 -3.05505
1 -9.63246 -8.55522 3.05506
1 -9.63231 8.55524 -3.05507
1 -9.63231 8.55524 3.05507
1 9.63259 -8.55524 -3.05507
1 9.63259 -8.55524 3.05507
1 9.63274 8.55522 -3.05505
1 9.63274 8.55522 3.05506
1 3.05511 -9.63254 -8.55523
1 3.05511 -9.63254 8.55523
1 3.05529 9.63251 -8.55522
1 3.05529 9.63251 8.55522
1 8.55531 -3.05505 -9.63251
1 8.55531 -3.05505 9.63251
1 8.55543 3.05508 -9.63255
1 -8.55514 -3.05508 -9.63255
1 -10.2368 -1.39055 9.12273
1 -10.2368 1.39054 -9.12268
1 -10.2368 1.39054 9.12268
1 -1.39049 -9.12269 -10.2369
1 -1.39048 -9.12269 10.2369
1 -1.39032 9.12271 -10.2369
1 -1.39032 9.12271 10.2369
1 -9.12265 -10.2369 -1.39054
1 -9.12265 -10.2369 1.39054
1 -9.12248 10.2369 -1.39055
1 -9.12248 10.2369 1.39054
1 9.12276 -10.2369 -1.39054
1 9.12276 -10.2369 1.39055
1 9.12293 10.2369 -1.39054
1 9.12293 10.2369 1.39055
1 1.3906 -9.12271 -10.2369
1 1.3906 -9.12271 10.2369
1 1.39077 9.12269 -10.2369
1 1.39077 9.12269 10.2369
1 10.237 -1.39054 -9.12268
1 10.237 -1.39054 9.12268
1 10.2371 1.39055 -9.12273
1 -10.2368 -1.39055 -9.12273
1 -1.73799 -5.60764 13.4485
1 -1.7379 5.60765 -13.4485
1 -1.7379 5.60765 13.4485
1 -5.60763 -13.4485 -1.73809
1 -5.60762 -13.4485 1.73809
1 -5.60738 13.4485 -1.73809
1 -5.60738 13.4485 1.73809
1 -13.4484 -1.73809 -5.60765
1 -13.4484 -1.73808 5.60765
1 -13.4484 1.73809 -5.60763
1 -13.4484 1.73809 5.60764
1 13.4486 -1.73809 -5.60764
1 13.4486 -1.73809 5.60764
1 13.4487 1.73809 -5.60765
1 13.4487 1.73809 5.60765
1 5.60766 -13.4485 -1.73809
1 5.60766 -13.4485 1.73809
1 5.60791 13.4485 -1.73808
1 5.60791 13.4485 1.73809
1 1.73818 -5.60765 -13.4485
1 1.73818 -5.60765 13.4485
1 1.73828 5.60764 -13.4485
1 -1.73799 -5.60764 -13.4485
1 -3.96865 -4.47595 13.4621
1 -3.96857 4.47596 -13.4621
1 -3.96857 4.47596 13.4621
1 -4.47594 -13.4621 -3.96875
1 -4.47594 -13.4621 3.96875
1 -4.47569 13.4621 -3.96875
1 -4.47569 13.4621 3.96875
1 -13.462 -3.96875 -4.47596
1 -13.462 -3.96875 4.47596
1 -13.4619 3.96875 -4.47595
1 -13.4619 3.96875 4.47595
1 13.4622 -3.96875 -4.47595
1 13.4622 -3.96875 4.47595
1 13.4623 3.96875 -4.47596
1 13.4623 3.96875 4.47596
1 4.47597 -13.4621 -3.96875
1 4.47597 -13.4621 3.96875
1 4.47622 13.4621 -3.96875
1 4.47622 13.4621 3.96875
1 3.96885 -4.47596 -13.4621
1 3.96885 -4.47596 13.4621
1 3.96894 4.47595 -13.4621
1 -3.96865 -4.47595 -13.4621
1 -3.29996 -5.57396 11.4029
1 -3.29987 5.57399 -11.4029
1 -3.29987 5.57399 11.4029
1 -5.57392 -11.4029 -3.30005
1 -5.57392 -11.4029 3.30005
1 -5.57374 11.4029 -3.30007
1 -5.57374 11.4029 3.30007
1 -11.4028 -3.30007 -5.57399
1 -11.4028 -3.30007 5.574
1 -11.4027 3.30004 -5.57395
1 -11.4027 3.30004 5.57395
1 11.403 -3.30004 -5.57395
1 11.403 -3.30004 5.57395
1 11.4031 3.30007 -5.57399
1 11.4031 3.30007 5.574
1 5.57402 -11.4029 -3.30007
1 5.57402 -11.4029 3.30007
1 5.5742 11.4029 -3.30005
1 5.5742 11.4029 3.30005
1 3.30015 -5.57399 -11.4029
1 3.30015 -5.57399 11.4029
1 3.30025 5.57396 -11.4029
1 -3.29996 -5.57396 -11.4029
1 -5.94334 -3.07245 13.4741
1 -5.94328 3.07246 -13.4741
1 -5.94328 3.07246 13.4741
1 -3.07245 -13.4741 -5.94345
1 -3.07245 -13.4741 5.94345
1 -3.07218 13.4741 -5.94345
1 -3.07218 13.4741 5.94345
1 -13.474 -5.94345 -3.07245
1 -13.474 -5.94345 3.07246
1 -13.4739 5.94345 -3.07246
1 -13.4739 5.94345 3.07246
1 13.4742 -5.94345 -3.07245
1 13.4742 -5.94345 3.07246
1 13.4743 5.94345 -3.07246
1 13.4743 5.94345 3.07246
1 3.07247 -13.4741 -5.94345
1 3.07246 -13.4741 5.94345
1 3.07273 13.4741 -5.94345
1 3.07273 13.4741 5.94345
1 5.94356 -3.07246 -13.4741
1 5.94356 -3.07246 13.4741
1 5.94363 3.07245 -13.4741
1 -5.94334 -3.07245 -13.4741
1 -7.91817 -1.46411 13.4697
1 -7.91813 1.46413 -13.4697
1 -7.91813 1.46413 13.4697
1 -1.46411 -13.4697 -7.91829
1 -1.46411 -13.4697 7.91829
1 -1.46384 13.4697 -7.91829
1 -1.46384 13.4697 7.91829
1 -13.4697 -7.91829 -1.46412
1 -13.4697 -7.91829 1.46412
1 -13.4695 7.91829 -1.46412
1 -13.4695 7.91829 1.46412
1 13.4698 -7.9183 -1.46412
1 13.4698 -7.9183 1.46412
1 13.47 7.91829 -1.46412
1 13.47 7.91829 1.46412
1 1.46413 -13.4697 -7.91829
1 1.46413 -13.4697 7.91829
1 1.46439 13.4697 -7.91829
1 1.46439 13.4697 7.91829
1 7.91841 -1.46413 -13.4697
1 7.91841 -1.46413 13.4697
1 7.91846 1.46411 -13.4697
1 -7.91817 -1.46411 -13.4697
1 -7.40156 -2.92581 11.642
1 -7.40147 2.92581 -11.642
1 -7.40147 2.92581 11.642
1 -2.92578 -11.642 -7.40166
1 -2.92578 -11.642 7.40166
1 -2.92555 11.642 -7.40165
1 -2.92555 11.642 7.40165
1 -11.6419 -7.40165 -2.9258
1 -11.6419 -7.40165 2.9258
1 -11.6418 7.40167 -2.92581
1 -11.6418 7.40166 2.92581
1 11.6421 -7.40167 -2.92581
1 11.6421 -7.40166 2.92581
1 11.6422 7.40165 -2.9258
1 11.6422 7.40165 2.92581
1 2.92584 -11.642 -7.40165
1 2.92583 -11.642 7.40165
1 2.92606 11.642 -7.40166
1 2.92607 11.642 7.40166
1 7.40176 -2.92581 -11.642
1 7.40176 -2.92581 11.642
1 7.40184 2.92581 -11.642
1 -7.40156 -2.92581 -11.642
1 -4.57153 -5.45803 9.24332
1 -4.57143 5.45807 -9.24334
1 -4.57143 5.45807 9.24334
1 -5.45798 -9.24331 -4.57161
1 -5.45798 -9.24331 4.57161
1 -5.45783 9.24335 -4.57163
1 -5.45783 9.24335 4.57163
1 -9.24326 -4.57163 -5.45806
1 -9.24326 -4.57163 5.45806
1 -9.24312 4.57162 -5.45803
1 -9.24312 4.57162 5.45804
1 9.2434 -4.57162 -5.45803
1 9.2434 -4.57162 5.45803
1 9.24354 4.57163 -5.45806
1 9.24354 4.57163 5.45806
1 5.45811 -9.24335 -4.57163
1 5.45811 -9.24335 4.57163
1 5.45827 9.24331 -4.57161
1 5.45827 9.24331 4.57161
1 4.57171 -5.45807 -9.24334
1 4.57171 -5.45807 9.24334
1 4.57181 5.45803 -9.24332
1 -4.57153 -5.45803 -9.24332
1 -7.32483 -3.81626 9.55969
1 -7.32472 3.81624 -9.55966
1 -7.32472 3.81624 9.55967
1 -3.8162 -9.55966 -7.32491
1 -3.8162 -9.55966 7.32491
1 -3.81602 9.55969 -7.32492
1 -3.81602 9.55969 7.32492
1 -9.5596 -7.32491 -3.81624
1 -9.5596 -7.32491 3.81624
1 -9.55946 7.32493 -3.81626
1 -9.55946 7.32493 3.81626
1 9.55975 -7.32493 -3.81625
1 9.55975 -7.32493 3.81626
1 9.55989 7.32491 -3.81624
1 9.55989 7.32491 3.81624
1 3.8163 -9.55969 -7.32492
1 3.8163 -9.55969 7.32492
1 3.81648 9.55966 -7.32491
1 3.81648 9.55966 7.32491
1 7.325 -3.81624 -9.55966
1 7.325 -3.81624 9.55967
1 7.32511 3.81625 -9.55969
1 -7.32483 -3.81626 -9.55968
1 -5.24018 -4.99746 6.85518
1 -5.24006 4.9975 -6.85519
1 -5.24006 4.9975 6.85519
1 -4.9974 -6.85517 -5.24025
1 -4.9974 -6.85517 5.24025
1 -4.99727 6.8552 -5.24027
1 -4.99727 6.8552 5.24027
1 -6.85511 -5.24025 -4.99748
1 -6.85511 -5.24025 4.99748
1 -6.85498 5.24027 -4.99748
1 -6.85497 5.24027 4.99748
1 6.85526 -5.24027 -4.99748
1 6.85526 -5.24027 4.99748
1 6.8554 5.24025 -4.99748
1 6.8554 5.24025 4.99748
1 4.99755 -6.8552 -5.24027
1 4.99755 -6.8552 5.24027
1 4.99769 6.85517 -5.24025
1 4.99769 6.85517 5.24025
1 5.24034 -4.9975 -6.85519
1 5.24034 -4.9975 6.85519
1 5.24046 4.99746 -6.85518
1 -5.24018 -4.99746 -6.85518
1 -8.77029 -0.712709 12.5763
1 -8.77025 0.712731 -12.5763
1 -8.77025 0.712731 12.5763
1 -0.712699 -12.5763 -8.77041
1 -0.7127 -12.5763 8.77041
1 -0.712459 12.5763 -8.77041
1 -0.712458 12.5763 8.77041
1 -12.5762 -8.77041 -0.712719
1 -12.5762 -8.77041 0.712721
1 -12.5761 8.77041 -0.71272
1 -12.5761 8.77041 0.712721
1 12.5764 -8.77041 -0.71272
1 12.5764 -8.77041 0.712721
1 12.5765 8.77041 -0.712719
1 12.5765 8.77041 0.712721
1 0.712741 -12.5763 -8.77041
1 0.712741 -12.5763 8.77041
1 0.712982 12.5763 -8.77041
1 0.712982 12.5763 8.77041
1 8.77054 -0.712732 -12.5763
1 8.77054 -0.712732 12.5763
1 8.77057 0.712709 -12.5763
1 -8.77029 -0.71271 -12.5763
1 -9.97868 -0.708773 10.3558
1 -9.97864 0.708787 -10.3558
1 -9.97864 0.708788 10.3558
1 -0.708737 -10.3558 -9.9788
1 -0.708737 -10.3558 9.9788
1 -0.708541 10.3558 -9.9788
1 -0.70854 10.3558 9.97881
1 -10.3557 -9.9788 -0.708779
1 -10.3557 -9.9788 0.70878
1 -10.3556 9.97881 -0.708781
1 -10.3556 9.9788 0.70878
1 10.3558 -9.97881 -0.70878
1 10.3558 -9.9788 0.708781
1 10.356 9.9788 -0.708779
1 10.356 9.9788 0.708781
1 0.708823 -10.3558 -9.9788
1 0.708823 -10.3558 9.9788
1 0.709019 10.3558 -9.9788
1 0.70902 10.3558 9.9788
1 9.97892 -0.708788 -10.3558
1 9.97892 -0.708788 10.3558
1 9.97897 0.708773 -10.3558
1 -9.97868 -0.708773 -10.3558
1 -8.56618 -2.50364 10.9604
1 -8.56608 2.50362 -10.9604
1 -8.56608 2.50362 10.9604
1 -2.50359 -10.9604 -8.56627
1 -2.50359 -10.9604 8.56627
1 -2.50338 10.9604 -8.56627
1 -2.50338 10.9604 8.56627
1 -10.9603 -8.56626 -2.50362
1 -10.9603 -8.56626 2.50362
1 -10.9602 8.56628 -2.50363
1 -10.9602 8.56628 2.50363
1 10.9605 -8.56628 -2.50363
1 10.9605 -8.56628 2.50363
1 10.9606 8.56626 -2.50362
1 10.9606 8.56626 2.50363
1 2.50366 -10.9604 -8.56627
1 2.50366 -10.9604 8.56627
1 2.50388 10.9604 -8.56627
1 2.50388 10.9604 8.56627
1 8.56636 -2.50362 -10.9604
1 8.56636 -2.50362 10.9604
1 8.56646 2.50364 -10.9604
1 -8.56618 -2.50364 -10.9604
1 -11.0184 -0.701457 8.16074
1 -11.0183 0.701447 -8.16071
1 -11.0183 0.701447 8.16071
1 -0.701379 -8.16072 -11.0185
1 -0.701379 -8.16072 11.0185
1 -0.701241 8.16073 -11.0185
1 -0.701241 8.16073 11.0185
1 -8.16067 -11.0185 -0.70145
1 -8.16067 -11.0185 0.701451
1 -8.16049 11.0185 -0.701453
1 -8.16049 11.0185 0.701452
1 8.16077 -11.0185 -0.701452
1 8.16077 -11.0185 0.701453
1 8.16095 11.0185 -0.701449
1 8.16095 11.0185 0.701452
1 0.701524 -8.16073 -11.0185
1 0.701524 -8.16073 11.0185
1 0.701662 8.16072 -11.0185
1 0.701662 8.16072 11.0185
1 11.0186 -0.701447 -8.16071
1 11.0186 -0.701447 8.16071
1 11.0186 0.701456 -8.16074
1 -11.0184 -0.701456 -8.16074
1 12.6061 0.733002 6.2581
1 -12.6058 -0.733002 6.2581
1 -12.6058 0.732995 -6.25808
1 -12.6058 0.732995 6.25809
1 -0.73291 -6.25809 -12.6059
1 -0.73291 -6.25809 12.6059
1 -0.732805 6.2581 -12.6059
1 -0.732804 6.2581 12.6059
1 -6.25806 -12.6059 -0.732996
1 -6.25806 -12.6059 0.732997
1 -6.25785 12.6059 -0.733001
1 -6.25785 12.6059 0.733001
1 6.25813 -12.6059 -0.733
1 6.25813 -12.6059 0.733001
1 6.25834 12.6059 -0.732996
1 6.25834 12.6059 0.732998
1 0.733088 -6.2581 -12.6059
1 0.733088 -6.2581 12.6059
1 0.733193 6.25809 -12.6059
1 0.733193 6.25809 12.6059
1 12.606 -0.732995 -6.25808
1 12.606 -0.732995 6.25808
1 12.6061 0.733003 -6.2581
1 -12.6058 -0.733003 -6.2581
1 10.8567 2.55477 6.64642
1 -10.8564 -2.55477 6.64642
1 -10.8562 2.55472 -6.64636
1 -10.8562 2.55472 6.64636
1 -2.55465 -6.64637 -10.8564
1 -2.55465 -6.64638 10.8564
1 -2.55455 6.6464 -10.8565
1 -2.55455 6.6464 10.8565
1 -6.64633 -10.8564 -2.55473
1 -6.64633 -10.8564 2.55473
1 -6.64616 10.8565 -2.55475
1 -6.64616 10.8565 2.55476
1 6.64645 -10.8565 -2.55476
1 6.64645 -10.8565 2.55475
1 6.64661 10.8564 -2.55473
1 6.64661 10.8564 2.55473
1 2.55483 -6.6464 -10.8565
1 2.55483 -6.6464 10.8565
1 2.55494 6.64637 -10.8564
1 2.55494 6.64637 10.8564
1 10.8565 -2.55472 -6.64636
1 10.8565 -2.55472 6.64636
1 10.8567 2.55477 -6.64642
1 -10.8564 -2.55477 -6.64642
1 -6.75981 -4.19879 8.37653
1 -6.75969 4.1988 -8.37652
1 -6.75969 4.1988 8.37652
1 -4.19873 -8.37651 -6.75988
1 -4.19873 -8.37651 6.75988
1 -4.19858 8.37654 -6.7599
1 -4.19858 8.37654 6.7599
1 -8.37646 -6.75988 -4.19879
1 -8.37646 -6.75988 4.19879
1 -8.37632 6.75991 -4.1988
1 -8.37631 6.75991 4.1988
1 8.3766 -6.75991 -4.1988
1 8.3766 -6.75991 4.1988
1 8.37674 6.75988 -4.19879
1 8.37674 6.75988 4.19879
1 4.19886 -8.37654 -6.7599
1 4.19886 -8.37654 6.7599
1 4.19902 8.37651 -6.75988
1 4.19902 8.37651 6.75988
1 6.75998 -4.1988 -8.37652
1 6.75998 -4.1988 8.37652
1 6.76009 4.19879 -8.37653
1 -6.75981 -4.19879 -8.37653
1 8.76887 3.86562 6.64839
1 -8.76859 -3.86562 6.64839
1 -8.76845 3.86559 -6.64836
1 -8.76845 3.86559 6.64836
1 -3.86552 -6.64836 -8.76865
1 -3.86552 -6.64836 8.76865
1 -3.8654 6.64839 -8.76867
1 -3.8654 6.64839 8.76867
1 -6.64831 -8.76864 -3.86559
1 -6.64831 -8.76864 3.86559
1 -6.64816 8.76868 -3.86562
1 -6.64816 8.76868 3.86562
1 6.64844 -8.76868 -3.86562
1 6.64844 -8.76868 3.86562
1 6.64859 8.76864 -3.86559
1 6.64859 8.76864 3.86559
1 3.86569 -6.64839 -8.76867
1 3.86569 -6.64839 8.76867
1 3.86581 6.64836 -8.76865
1 3.86581 6.64836 8.76865
1 8.76874 -3.86559 -6.64836
1 8.76874 -3.86559 6.64836
1 8.76887 3.86562 -6.64839
1 -8.76859 -3.86562 -6.64839
1 6.4152 4.55418 6.1362
1 -6.41491 -4.55418 6.1362
1 -6.41478 4.5542 -6.1362
1 -6.41478 4.5542 6.1362
1 -4.55411 -6.13618 -6.41497
1 -4.55411 -6.13618 6.41498
1 -4.55399 6.13621 -6.415
1 -4.55399 6.13621 6.415
1 -6.13612 -6.41497 -4.55418
1 -6.13612 -6.41497 4.55418
1 -6.13599 6.415 -4.5542
1 -6.13599 6.415 4.5542
1 6.13627 -6.415 -4.5542
1 6.13627 -6.415 4.5542
1 6.1364 6.41497 -4.55418
1 6.13641 6.41497 4.55418
1 4.55427 -6.13621 -6.415
1 4.55427 -6.13621 6.415
1 4.5544 6.13618 -6.41498
1 4.5544 6.13618 6.41498
1 6.41506 -4.5542 -6.1362
1 6.41506 -4.5542 6.1362
1 6.4152 4.55418 -6.13619
1 -6.41491 -4.55418 -6.13619
768
Atoms. Timestep: 34320
1 5.3582 4.24256 11.351
1 9.5018 2.55407 8.70283
1 2.96089 5.18793 12.753
1 7.04434 2.42912 12.8753
1 5.44112 4.80715 8.28463
1 9.2452 1.35471 11.381
1 11.5166 1.35095 7.01186
1 7.40703 4.07833 7.07986
1 6.59823 3.78258 10.816
1 4.42417 5.07095 10.6416
1 5.06435 3.91345 12.7329
1 9.68702 3.01301 7.3543
1 8.55543 3.05508 9.63256
1 10.2371 1.39055 9.12273
1 1.73827 5.60764 13.4485
1 3.96893 4.47595 13.4621
1 3.30024 5.57396 11.4029
1 5.94362 3.07244 13.4741
1 7.91845 1.4641 13.4697
1 7.40184 2.92581 11.642
1 4.57181 5.45803 9.24332
1 7.32512 3.81627 9.5597
1 5.24047 4.99746 6.85518
1 8.77057 0.712702 12.5763
1 9.97897 0.708771 10.3558
1 8.56646 2.50364 10.9604
1 11.0186 0.701458 8.16074
1 6.7601 4.1988 8.37654
1 -5.35791 -4.24256 11.351
1 -5.35782 4.24257 -11.351
1 -5.35782 4.24257 11.351
1 -4.24251 -11.351 -5.35799
1 -4.24251 -11.351 5.35799
1 -4.24234 11.351 -5.35802
1 -4.24234 11.351 5.35803
1 -11.3509 -5.35801 -4.24257
1 -11.3509 -5.35801 4.24257
1 -11.3508 5.35801 -4.24256
1 -11.3508 5.35801 4.24256
1 11.3511 -5.35801 -4.24256
1 11.3511 -5.35801 4.24256
1 11.3512 5.35801 -4.24257
1 11.3512 5.35801 4.24257
1 4.24262 -11.351 -5.35802
1 4.24262 -11.351 5.35803
1 4.2428 11.351 -5.35799
1 4.2428 11.351 5.35799
1 5.35811 -4.24257 -11.351
1 5.35811 -4.24257 11.351
1 5.3582 4.24256 -11.351
1 -5.35791 -4.24256 -11.351
1 -9.50152 -2.55407 8.70283
1 -9.50139 2.55402 -8.70277
1 -9.50139 2.55402 8.70277
1 -2.55396 -8.70278 -9.50158
1 -2.55396 -8.70278 9.50158
1 -2.55384 8.70282 -9.50161
1 -2.55384 8.70282 9.50161
1 -8.70274 -9.50158 -2.55404
1 -8.70274 -9.50158 2.55404
1 -8.70258 9.50161 -2.55405
1 -8.70258 9.50161 2.55405
1 8.70286 -9.50161 -2.55405
1 8.70286 -9.50161 2.55405
1 8.70302 9.50158 -2.55404
1 8.70302 9.50158 2.55404
1 2.55412 -8.70282 -9.50161
1 2.55412 -8.70282 9.50161
1 2.55425 8.70278 -9.50158
1 2.55425 8.70278 9.50158
1 9.50167 -2.55402 -8.70277
1 9.50167 -2.55402 8.70277
1 9.5018 2.55407 -8.70283
1 -9.50152 -2.55407 -8.70283
1 -2.96061 -5.18793 12.753
1 -2.96052 5.18794 -12.753
1 -2.96052 5.18794 12.753
1 -5.1879 -12.753 -2.9607
1 -5.1879 -12.753 2.9607
1 -5.18768 12.7531 -2.96071
1 -5.18768 12.7531 2.96071
1 -12.753 -2.96071 -5.18794
1 -12.753 -2.96071 5.18795
1 -12.7528 2.9607 -5.18792
1 -12.7528 2.9607 5.18792
1 12.7531 -2.9607 -5.18792
1 12.7531 -2.9607 5.18792
1 12.7532 2.96071 -5.18794
1 12.7532 2.96071 5.18795
1 5.18797 -12.7531 -2.96071
1 5.18797 -12.7531 2.96071
1 5.18818 12.753 -2.9607
1 5.18818 12.753 2.9607
1 2.9608 -5.18794 -12.753
1 2.9608 -5.18794 12.753
1 2.96089 5.18793 -12.753
1 -2.96061 -5.18793 -12.753
1 -7.04405 -2.42913 12.8753
1 -7.04401 2.42915 -12.8753
1 -7.04401 2.42915 12.8753
1 -2.4291 -12.8753 -7.04416
1 -2.4291 -12.8753 7.04416
1 -2.42889 12.8753 -7.04418
1 -2.42889 12.8753 7.04418
1 -12.8753 -7.04417 -2.42914
1 -12.8753 -7.04417 2.42914
1 -12.8751 7.04417 -2.42914
1 -12.8751 7.04417 2.42914
1 12.8754 -7.04417 -2.42914
1 12.8754 -7.04417 2.42914
1 12.8755 7.04417 -2.42914
1 12.8755 7.04417 2.42914
1 2.42917 -12.8753 -7.04418
1 2.42917 -12.8753 7.04418
1 2.42939 12.8753 -7.04416
1 2.42939 12.8753 7.04416
1 7.04429 -2.42915 -12.8753
1 7.04429 -2.42915 12.8753
1 7.04434 2.42912 -12.8753
1 -7.04405 -2.42913 -12.8753
1 -5.44083 -4.80715 8.28463
1 -5.44071 4.80718 -8.28463
1 -5.44071 4.80718 8.28463
1 -4.80709 -8.2846 -5.44089
1 -4.80709 -8.2846 5.44089
1 -4.80696 8.28466 -5.44093
1 -4.80696 8.28466 5.44093
1 -8.28457 -5.44091 -4.80717
1 -8.28457 -5.44091 4.80717
1 -8.28441 5.44092 -4.80716
1 -8.28441 5.44092 4.80716
1 8.2847 -5.44092 -4.80716
1 8.2847 -5.44092 4.80716
1 8.28485 5.44091 -4.80717
1 8.28485 5.44091 4.80717
1 4.80724 -8.28466 -5.44093
1 4.80724 -8.28466 5.44093
1 4.80737 8.2846 -5.44089
1 4.80737 8.2846 5.44089
1 5.44099 -4.80718 -8.28463
1 5.44099 -4.80718 8.28463
1 5.44112 4.80715 -8.28463
1 -5.44083 -4.80715 -8.28463
1 -9.24491 -1.35471 11.381
1 -9.24486 1.35473 -11.3809
1 -9.24486 1.35473 11.3809
1 -1.35467 -11.3809 -9.24502
1 -1.35467 -11.3809 9.24502
1 -1.35448 11.381 -9.24503
1 -1.35448 11.381 9.24503
1 -11.3809 -9.24502 -1.35472
1 -11.3809 -9.24502 1.35472
1 -11.3807 9.24503 -1.35472
1 -11.3807 9.24503 1.35472
1 11.381 -9.24503 -1.35472
1 11.381 -9.24503 1.35472
1 11.3812 9.24502 -1.35472
1 11.3812 9.24502 1.35472
1 1.35477 -11.381 -9.24503
1 1.35477 -11.381 9.24503
1 1.35496 11.3809 -9.24502
1 1.35496 11.3809 9.24502
1 9.24514 -1.35473 -11.3809
1 9.24514 -1.35473 11.3809
1 9.2452 1.35471 -11.381
1 -9.24491 -1.35471 -11.381
1 -11.5163 -1.35095 7.01186
1 -11.5162 1.35091 -7.01179
1 -11.5162 1.35091 7.0118
1 -1.35084 -7.01181 -11.5164
1 -1.35084 -7.01181 11.5164
1 -1.35074 7.01184 -11.5164
1 -1.35074 7.01184 11.5164
1 -7.01177 -11.5164 -1.35093
1 -7.01177 -11.5164 1.35093
1 -7.01159 11.5164 -1.35094
1 -7.01159 11.5164 1.35094
1 7.01188 -11.5164 -1.35094
1 7.01188 -11.5164 1.35094
1 7.01206 11.5164 -1.35093
1 7.01206 11.5164 1.35093
1 1.35102 -7.01184 -11.5164
1 1.35102 -7.01184 11.5164
1 1.35112 7.01181 -11.5164
1 1.35112 7.01181 11.5164
1 11.5165 -1.35091 -7.01179
1 11.5165 -1.35091 7.0118
1 11.5166 1.35095 -7.01186
1 -11.5163 -1.35095 -7.01186
1 -7.40675 -4.07833 7.07986
1 -7.4066 4.07831 -7.07983
1 -7.4066 4.07831 7.07983
1 -4.07824 -7.07982 -7.4068
1 -4.07824 -7.07982 7.4068
1 -4.07813 7.07987 -7.40683
1 -4.07813 7.07987 7.40684
1 -7.07978 -7.40679 -4.07831
1 -7.07978 -7.40679 4.07831
1 -7.07963 7.40684 -4.07833
1 -7.07963 7.40684 4.07834
1 7.07992 -7.40684 -4.07833
1 7.07992 -7.40684 4.07834
1 7.08006 7.40679 -4.07831
1 7.08006 7.40679 4.07831
1 4.07841 -7.07987 -7.40683
1 4.07841 -7.07987 7.40684
1 4.07852 7.07982 -7.4068
1 4.07852 7.07982 7.4068
1 7.40688 -4.07831 -7.07983
1 7.40688 -4.07831 7.07983
1 7.40703 4.07833 -7.07986
1 -7.40675 -4.07833 -7.07986
1 -6.59794 -3.78258 10.816
1 -6.59784 3.78256 -10.8159
1 -6.59784 3.78256 10.8159
1 -3.78251 -10.8159 -6.59801
1 -3.78251 -10.8159 6.59801
1 -3.78235 10.816 -6.59805
1 -3.78235 10.816 6.59805
1 -10.8159 -6.59803 -3.78257
1 -10.8159 -6.59803 3.78257
1 -10.8157 6.59804 -3.78257
1 -10.8157 6.59804 3.78257
1 10.816 -6.59804 -3.78257
1 10.816 -6.59804 3.78257
1 10.8162 6.59803 -3.78257
1 10.8162 6.59803 3.78257
1 3.78263 -10.816 -6.59805
1 3.78263 -10.816 6.59805
1 3.78279 10.8159 -6.59801
1 3.78279 10.8159 6.59801
1 6.59813 -3.78256 -10.8159
1 6.59813 -3.78256 10.8159
1 6.59823 3.78258 -10.816
1 -6.59794 -3.78258 -10.816
1 -4.42389 -5.07095 10.6416
1 -4.4238 5.07097 -10.6416
1 -4.4238 5.07097 10.6416
1 -5.0709 -10.6416 -4.42396
1 -5.0709 -10.6416 4.42396
1 -5.07074 10.6416 -4.424
1 -5.07074 10.6416 4.424
1 -10.6415 -4.42399 -5.07097
1 -10.6415 -4.42399 5.07098
1 -10.6414 4.42397 -5.07094
1 -10.6414 4.42397 5.07094
1 10.6416 -4.42397 -5.07094
1 10.6416 -4.42397 5.07094
1 10.6418 4.42399 -5.07097
1 10.6418 4.42399 5.07098
1 5.07102 -10.6416 -4.424
1 5.07102 -10.6416 4.424
1 5.07118 10.6416 -4.42396
1 5.07118 10.6416 4.42396
1 4.42408 -5.07097 -10.6416
1 4.42408 -5.07097 10.6416
1 4.42417 5.07095 -10.6416
1 -4.42389 -5.07095 -10.6416
1 -5.06407 -3.91345 12.7329
1 -5.064 3.91346 -12.7329
1 -5.064 3.91346 12.7329
1 -3.91343 -12.7329 -5.06416
1 -3.91343 -12.7329 5.06416
1 -3.9132 12.7329 -5.06418
1 -3.9132 12.7329 5.06419
1 -12.7328 -5.06418 -3.91346
1 -12.7328 -5.06418 3.91346
1 -12.7327 5.06417 -3.91345
1 -12.7327 5.06417 3.91346
1 12.7329 -5.06417 -3.91345
1 12.7329 -5.06417 3.91346
1 12.7331 5.06418 -3.91346
1 12.7331 5.06418 3.91346
1 3.91349 -12.7329 -5.06418
1 3.91349 -12.7329 5.06419
1 3.91371 12.7329 -5.06416
1 3.91371 12.7329 5.06416
1 5.06428 -3.91346 -12.7329
1 5.06428 -3.91346 12.7329
1 5.06435 3.91345 -12.7329
1 -5.06407 -3.91345 -12.7329
1 -9.68674 -3.01301 7.3543
1 -9.68659 3.01296 -7.35423
1 -9.68659 3.01296 7.35424
1 -3.01289 -7.35425 -9.68679
1 -3.01289 -7.35425 9.68679
1 -3.01279 7.35429 -9.68682
1 -3.01279 7.35429 9.68683
1 -7.35421 -9.68678 -3.01297
1 -7.35421 -9.68678 3.01298
1 -7.35405 9.68683 -3.013
1 -7.35405 9.68683 3.013
1 7.35433 -9.68683 -3.013
1 7.35433 -9.68683 3.013
1 7.35449 9.68678 -3.01297
1 7.35449 9.68678 3.01298
1 3.01308 -7.35429 -9.68682
1 3.01308 -7.35429 9.68683
1 3.01318 7.35425 -9.68679
1 3.01318 7.35425 9.68679
1 9.68688 -3.01296 -7.35423
1 9.68688 -3.01296 7.35424
1 9.68702 3.01301 -7.3543
1 -9.68674 -3.01301 -7.3543
1 -8.55515 -3.05508 9.63256
1 -8.55502 3.05504 -9.6325
1 -8.55502 3.05504 9.6325
1 -3.05499 -9.6325 -8.55521
1 -3.05499 -9.6325 8.55521
1 -3.05485 9.63255 -8.55525
1 -3.05485 9.63255 8.55525
1 -9.63247 -8.55522 -3.05506
1 -9.63247 -8.55522 3.05506
1 -9.63231 8.55524 -3.05506
1 -9.63231 8.55524 3.05506
1 9.63259 -8.55524 -3.05506
1 9.63259 -8.55524 3.05506
1 9.63275 8.55522 -3.05506
1 9.63275 8.55522 3.05506
1 3.05514 -9.63255 -8.55525
1 3.05514 -9.63255 8.55525
1 3.05527 9.6325 -8.55521
1 3.05527 9.6325 8.55521
1 8.5553 -3.05504 -9.6325
1 8.5553 -3.05504 9.6325
1 8.55543 3.05508 -9.63256
1 -8.55515 -3.05508 -9.63256
1 -10.2368 -1.39055 9.12273
1 -10.2367 1.39054 -9.12268
1 -10.2367 1.39054 9.12268
1 -1.39047 -9.12269 -10.2369
1 -1.39047 -9.12269 10.2369
1 -1.39033 9.12272 -10.2369