768
Atoms. Timestep: 34000
C 5.3582 4.24256 11.351
C 9.5018 2.55406 8.70282
C 2.96089 5.18793 12.753
C 7.04434 2.42913 12.8753
C 5.44111 4.80715 8.28463
C 9.2452 1.35472 11.381
C 11.5166 1.35095 7.01185
C 7.40702 4.07833 7.07986
C 6.59822 3.78257 10.816
C 4.42417 5.07094 10.6416
C 5.06436 3.91345 12.7329
C 9.68702 3.01301 7.3543
C 8.55543 3.05508 9.63255
C 10.2371 1.39055 9.12273
C 1.73828 5.60764 13.4485
C 3.96894 4.47595 13.4621
C 3.30025 5.57396 11.4029
C 5.94363 3.07245 13.4741
C 7.91846 1.46411 13.4697
C 7.40184 2.92581 11.642
C 4.57182 5.45803 9.24332
C 7.32511 3.81626 9.55969
C 5.24046 4.99746 6.85518
C 8.77057 0.712709 12.5763
C 9.97897 0.708772 10.3558
C 8.56646 2.50364 10.9604
C 11.0186 0.701456 8.16074
C 6.7601 4.19879 8.37653
C -5.35791 -4.24256 11.351
C -5.35782 4.24257 -11.351
C -5.35782 4.24257 11.351
C -4.24253 -11.351 -5.35801
C -4.24253 -11.351 5.35801
C -4.24232 11.351 -5.35801
C -4.24232 11.351 5.35801
C -11.3509 -5.35801 -4.24257
C -11.3509 -5.35801 4.24257
C -11.3508 5.35801 -4.24256
C -11.3508 5.35801 4.24256
C 11.3511 -5.35801 -4.24256
C 11.3511 -5.35801 4.24256
C 11.3512 5.35801 -4.24257
C 11.3512 5.35801 4.24257
C 4.2426 -11.351 -5.35801
C 4.2426 -11.351 5.35801
C 4.24281 11.351 -5.358
C 4.24281 11.351 5.35801
C 5.35811 -4.24257 -11.351
C 5.35811 -4.24257 11.351
C 5.35819 4.24256 -11.351
C -5.35791 -4.24256 -11.351
C -9.50151 -2.55406 8.70282
C -9.50139 2.55403 -8.70277
C -9.50139 2.55403 8.70277
C -2.55398 -8.70278 -9.50159
C -2.55398 -8.70278 9.50159
C -2.55383 8.70281 -9.5016
C -2.55382 8.70281 9.5016
C -8.70273 -9.50158 -2.55404
C -8.70273 -9.50158 2.55404
C -8.70258 9.50161 -2.55405
C -8.70258 9.50161 2.55405
C 8.70286 -9.50161 -2.55405
C 8.70286 -9.50161 2.55405
C 8.70302 9.50158 -2.55403
C 8.70302 9.50158 2.55404
C 2.55411 -8.70281 -9.5016
C 2.55411 -8.70281 9.5016
C 2.55426 8.70278 -9.50159
C 2.55426 8.70278 9.50159
C 9.50168 -2.55403 -8.70277
C 9.50168 -2.55403 8.70277
C 9.5018 2.55406 -8.70282
C -9.50151 -2.55406 -8.70282
C -2.96061 -5.18793 12.753
C -2.96052 5.18794 -12.753
C -2.96052 5.18794 12.753
C -5.18791 -12.753 -2.9607
C -5.18791 -12.753 2.9607
C -5.18768 12.753 -2.96071
C -5.18768 12.753 2.96071
C -12.753 -2.96071 -5.18794
C -12.753 -2.96071 5.18794
C -12.7528 2.9607 -5.18792
C -12.7528 2.9607 5.18793
C 12.7531 -2.9607 -5.18792
C 12.7531 -2.9607 5.18793
C 12.7532 2.96071 -5.18794
C 12.7532 2.96071 5.18794
C 5.18796 -12.753 -2.96071
C 5.18796 -12.753 2.96071
C 5.18819 12.753 -2.9607
C 5.18819 12.753 2.9607
C 2.9608 -5.18794 -12.753
C 2.9608 -5.18794 12.753
C 2.96089 5.18793 -12.753
C -2.96061 -5.18793 -12.753
C -7.04406 -2.42913 12.8753
C -7.044 2.42914 -12.8753
C -7.044 2.42914 12.8753
C -2.42912 -12.8753 -7.04417
C -2.42912 -12.8753 7.04417
C -2.42887 12.8753 -7.04417
C -2.42887 12.8753 7.04417
C -12.8752 -7.04417 -2.42913
C -12.8752 -7.04417 2.42914
C -12.8751 7.04418 -2.42914
C -12.8751 7.04417 2.42914
C 12.8754 -7.04418 -2.42914
C 12.8754 -7.04417 2.42914
C 12.8755 7.04417 -2.42913
C 12.8755 7.04417 2.42914
C 2.42915 -12.8753 -7.04417
C 2.42915 -12.8753 7.04417
C 2.42941 12.8753 -7.04417
C 2.42941 12.8753 7.04417
C 7.04428 -2.42914 -12.8753
C 7.04428 -2.42914 12.8753
C 7.04434 2.42913 -12.8753
C -7.04406 -2.42913 -12.8753
C -5.44082 -4.80715 8.28463
C -5.44072 4.80718 -8.28464
C -5.44072 4.80718 8.28464
C -4.8071 -8.28462 -5.4409
C -4.8071 -8.28462 5.4409
C -4.80695 8.28465 -5.44092
C -4.80695 8.28465 5.44093
C -8.28456 -5.44091 -4.80717
C -8.28456 -5.44091 4.80717
C -8.28442 5.44092 -4.80716
C -8.28442 5.44092 4.80716
C 8.28471 -5.44092 -4.80716
C 8.2847 -5.44092 4.80716
C 8.28484 5.44091 -4.80717
C 8.28484 5.44091 4.80717
C 4.80723 -8.28465 -5.44092
C 4.80723 -8.28465 5.44093
C 4.80738 8.28462 -5.4409
C 4.80738 8.28462 5.4409
C 5.441 -4.80719 -8.28464
C 5.441 -4.80718 8.28464
C 5.44111 4.80715 -8.28463
C -5.44082 -4.80715 -8.28463
C -9.24492 -1.35472 11.381
C -9.24485 1.35472 -11.3809
C -9.24485 1.35472 11.3809
C -1.35469 -11.3809 -9.24503
C -1.35469 -11.3809 9.24503
C -1.35447 11.381 -9.24502
C -1.35447 11.381 9.24502
C -11.3809 -9.24502 -1.35472
C -11.3809 -9.24502 1.35472
C -11.3807 9.24503 -1.35472
C -11.3807 9.24503 1.35472
C 11.381 -9.24503 -1.35472
C 11.381 -9.24503 1.35472
C 11.3812 9.24502 -1.35472
C 11.3812 9.24502 1.35472
C 1.35475 -11.381 -9.24502
C 1.35475 -11.381 9.24502
C 1.35497 11.3809 -9.24503
C 1.35497 11.3809 9.24503
C 9.24513 -1.35472 -11.3809
C 9.24513 -1.35472 11.3809
C 9.2452 1.35472 -11.381
C -9.24492 -1.35472 -11.381
C -11.5163 -1.35095 7.01185
C -11.5162 1.35092 -7.0118
C -11.5162 1.35092 7.0118
C -1.35085 -7.01181 -11.5164
C -1.35085 -7.01182 11.5164
C -1.35073 7.01184 -11.5164
C -1.35073 7.01184 11.5164
C -7.01177 -11.5164 -1.35093
C -7.01177 -11.5164 1.35093
C -7.01159 11.5164 -1.35094
C -7.01159 11.5164 1.35094
C 7.01188 -11.5164 -1.35094
C 7.01188 -11.5164 1.35094
C 7.01206 11.5164 -1.35093
C 7.01206 11.5164 1.35093
C 1.35102 -7.01184 -11.5164
C 1.35102 -7.01184 11.5164
C 1.35113 7.01181 -11.5164
C 1.35113 7.01181 11.5164
C 11.5165 -1.35092 -7.0118
C 11.5165 -1.35092 7.0118
C 11.5166 1.35095 -7.01185
C -11.5163 -1.35095 -7.01185
C -7.40674 -4.07832 7.07986
C -7.40661 4.07832 -7.07984
C -7.40661 4.07832 7.07984
C -4.07825 -7.07983 -7.40681
C -4.07825 -7.07983 7.40681
C -4.07811 7.07986 -7.40683
C -4.07811 7.07986 7.40683
C -7.07977 -7.4068 -4.07831
C -7.07977 -7.4068 4.07831
C -7.07964 7.40684 -4.07834
C -7.07964 7.40683 4.07834
C 7.07992 -7.40684 -4.07833
C 7.07992 -7.40684 4.07834
C 7.08006 7.4068 -4.07831
C 7.08006 7.4068 4.07831
C 4.0784 -7.07986 -7.40683
C 4.0784 -7.07986 7.40683
C 4.07853 7.07983 -7.40681
C 4.07853 7.07983 7.40681
C 7.4069 -4.07832 -7.07984
C 7.40689 -4.07832 7.07984
C 7.40702 4.07832 -7.07985
C -7.40674 -4.07833 -7.07985
C -6.59794 -3.78257 10.816
C -6.59785 3.78257 -10.8159
C -6.59785 3.78257 10.816
C -3.78253 -10.8159 -6.59803
C -3.78253 -10.8159 6.59803
C -3.78232 10.816 -6.59804
C -3.78232 10.816 6.59804
C -10.8159 -6.59803 -3.78256
C -10.8159 -6.59803 3.78256
C -10.8157 6.59804 -3.78257
C -10.8157 6.59804 3.78257
C 10.816 -6.59804 -3.78257
C 10.816 -6.59804 3.78257
C 10.8162 6.59803 -3.78256
C 10.8162 6.59803 3.78256
C 3.78261 -10.816 -6.59804
C 3.7826 -10.816 6.59804
C 3.78281 10.8159 -6.59803
C 3.78281 10.8159 6.59803
C 6.59813 -3.78257 -10.8159
C 6.59813 -3.78257 10.816
C 6.59822 3.78257 -10.816
C -6.59794 -3.78257 -10.816
C -4.42389 -5.07094 10.6416
C -4.42379 5.07097 -10.6416
C -4.42379 5.07097 10.6416
C -5.07091 -10.6416 -4.42397
C -5.0709 -10.6416 4.42397
C -5.07073 10.6416 -4.42399
C -5.07073 10.6416 4.42399
C -10.6415 -4.42399 -5.07097
C -10.6415 -4.42399 5.07097
C -10.6414 4.42397 -5.07094
C -10.6414 4.42397 5.07095
C 10.6417 -4.42397 -5.07094
C 10.6417 -4.42397 5.07095
C 10.6418 4.42399 -5.07097
C 10.6418 4.42399 5.07097
C 5.07101 -10.6416 -4.42399
C 5.07101 -10.6416 4.42399
C 5.07119 10.6416 -4.42397
C 5.07119 10.6416 4.42397
C 4.42408 -5.07097 -10.6416
C 4.42408 -5.07097 10.6416
C 4.42417 5.07094 -10.6416
C -4.42389 -5.07094 -10.6416
C -5.06407 -3.91345 12.7329
C -5.06399 3.91346 -12.7329
C -5.06399 3.91346 12.7329
C -3.91344 -12.7329 -5.06417
C -3.91344 -12.7329 5.06417
C -3.91319 12.7329 -5.06418
C -3.91319 12.7329 5.06418
C -12.7328 -5.06417 -3.91346
C -12.7328 -5.06418 3.91346
C -12.7327 5.06417 -3.91346
C -12.7327 5.06417 3.91346
C 12.733 -5.06417 -3.91346
C 12.733 -5.06417 3.91346
C 12.7331 5.06418 -3.91346
C 12.7331 5.06418 3.91346
C 3.91347 -12.7329 -5.06418
C 3.91347 -12.7329 5.06418
C 3.91372 12.7329 -5.06417
C 3.91372 12.7329 5.06417
C 5.06428 -3.91346 -12.7329
C 5.06428 -3.91346 12.7329
C 5.06436 3.91345 -12.7329
C -5.06407 -3.91345 -12.7329
C -9.68673 -3.01301 7.3543
C -9.6866 3.01296 -7.35424
C -9.6866 3.01296 7.35424
C -3.01291 -7.35425 -9.6868
C -3.01291 -7.35425 9.6868
C -3.01278 7.35429 -9.68682
C -3.01278 7.35429 9.68682
C -7.35421 -9.68679 -3.01297
C -7.35421 -9.68679 3.01297
C -7.35405 9.68683 -3.013
C -7.35405 9.68683 3.013
C 7.35433 -9.68683 -3.013
C 7.35433 -9.68683 3.013
C 7.35449 9.68679 -3.01297
C 7.35449 9.68679 3.01297
C 3.01307 -7.35429 -9.68682
C 3.01306 -7.35429 9.68682
C 3.01319 7.35425 -9.6868
C 3.01319 7.35425 9.6868
C 9.68688 -3.01296 -7.35424
C 9.68688 -3.01296 7.35424
C 9.68702 3.01301 -7.3543
C -9.68673 -3.01301 -7.3543
C -8.55514 -3.05508 9.63255
C -8.55503 3.05505 -9.63251
C -8.55503 3.05505 9.63251
C -3.05501 -9.63251 -8.55522
C -3.05501 -9.63251 8.55522
C -3.05483 9.63254 -8.55523
C -3.05483 9.63254 8.55523
C -9.63246 -8.55522 -3.05505
C -9.63246 -8.55522 3.05506
C -9.63231 8.55524 -3.05507
C -9.63231 8.55524 3.05507
C 9.63259 -8.55524 -3.05507
C 9.63259 -8.55524 3.05507
C 9.63274 8.55522 -3.05505
C 9.63274 8.55522 3.05506
C 3.05511 -9.63254 -8.55523
C 3.05511 -9.63254 8.55523
C 3.05529 9.63251 -8.55522
C 3.05529 9.63251 8.55522
C 8.55531 -3.05505 -9.63251
C 8.55531 -3.05505 9.63251
C 8.55543 3.05508 -9.63255
C -8.55514 -3.05508 -9.63255
C -10.2368 -1.39055 9.12273
C -10.2368 1.39054 -9.12268
C -10.2368 1.39054 9.12268
C -1.39049 -9.12269 -10.2369
C -1.39048 -9.12269 10.2369
C -1.39032 9.12271 -10.2369
C -1.39032 9.12271 10.2369
C -9.12265 -10.2369 -1.39054
C -9.12265 -10.2369 1.39054
C -9.12248 10.2369 -1.39055
C -9.12248 10.2369 1.39054
C 9.12276 -10.2369 -1.39054
C 9.12276 -10.2369 1.39055
C 9.12293 10.2369 -1.39054
C 9.12293 10.2369 1.39055
C 1.3906 -9.12271 -10.2369
C 1.3906 -9.12271 10.2369
C 1.39077 9.12269 -10.2369
C 1.39077 9.12269 10.2369
C 10.237 -1.39054 -9.12268
C 10.237 -1.39054 9.12268
C 10.2371 1.39055 -9.12273
C -10.2368 -1.39055 -9.12273
C -1.73799 -5.60764 13.4485
C -1.7379 5.60765 -13.4485
C -1.7379 5.60765 13.4485
C -5.60763 -13.4485 -1.73809
C -5.60762 -13.4485 1.73809
C -5.60738 13.4485 -1.73809
C -5.60738 13.4485 1.73809
C -13.4484 -1.73809 -5.60765
C -13.4484 -1.73808 5.60765
C -13.4484 1.73809 -5.60763
C -13.4484 1.73809 5.60764
C 13.4486 -1.73809 -5.60764
C 13.4486 -1.73809 5.60764
C 13.4487 1.73809 -5.60765
C 13.4487 1.73809 5.60765
C 5.60766 -13.4485 -1.73809
C 5.60766 -13.4485 1.73809
C 5.60791 13.4485 -1.73808
C 5.60791 13.4485 1.73809
C 1.73818 -5.60765 -13.4485
C 1.73818 -5.60765 13.4485
C 1.73828 5.60764 -13.4485
C -1.73799 -5.60764 -13.4485
C -3.96865 -4.47595 13.4621
C -3.96857 4.47596 -13.4621
C -3.96857 4.47596 13.4621
C -4.47594 -13.4621 -3.96875
C -4.47594 -13.4621 3.96875
C -4.47569 13.4621 -3.96875
C -4.47569 13.4621 3.96875
C -13.462 -3.96875 -4.47596
C -13.462 -3.96875 4.47596
C -13.4619 3.96875 -4.47595
C -13.4619 3.96875 4.47595
C 13.4622 -3.96875 -4.47595
C 13.4622 -3.96875 4.47595
C 13.4623 3.96875 -4.47596
C 13.4623 3.96875 4.47596
C 4.47597 -13.4621 -3.96875
C 4.47597 -13.4621 3.96875
C 4.47622 13.4621 -3.96875
C 4.47622 13.4621 3.96875
C 3.96885 -4.47596 -13.4621
C 3.96885 -4.47596 13.4621
C 3.96894 4.47595 -13.4621
C -3.96865 -4.47595 -13.4621
C -3.29996 -5.57396 11.4029
C -3.29987 5.57399 -11.4029
C -3.29987 5.57399 11.4029
C -5.57392 -11.4029 -3.30005
C -5.57392 -11.4029 3.30005
C -5.57374 11.4029 -3.30007
C -5.57374 11.4029 3.30007
C -11.4028 -3.30007 -5.57399
C -11.4028 -3.30007 5.574
C -11.4027 3.30004 -5.57395
C -11.4027 3.30004 5.57395
C 11.403 -3.30004 -5.57395
C 11.403 -3.30004 5.57395
C 11.4031 3.30007 -5.57399
C 11.4031 3.30007 5.574
C 5.57402 -11.4029 -3.30007
C 5.57402 -11.4029 3.30007
C 5.5742 11.4029 -3.30005
C 5.5742 11.4029 3.30005
C 3.30015 -5.57399 -11.4029
C 3.30015 -5.57399 11.4029
C 3.30025 5.57396 -11.4029
C -3.29996 -5.57396 -11.4029
C -5.94334 -3.07245 13.4741
C -5.94328 3.07246 -13.4741
C -5.94328 3.07246 13.4741
C -3.07245 -13.4741 -5.94345
C -3.07245 -13.4741 5.94345
C -3.07218 13.4741 -5.94345
C -3.07218 13.4741 5.94345
C -13.474 -5.94345 -3.07245
C -13.474 -5.94345 3.07246
C -13.4739 5.94345 -3.07246
C -13.4739 5.94345 3.07246
C 13.4742 -5.94345 -3.07245
C 13.4742 -5.94345 3.07246
C 13.4743 5.94345 -3.07246
C 13.4743 5.94345 3.07246
C 3.07247 -13.4741 -5.94345
C 3.07246 -13.4741 5.94345
C 3.07273 13.4741 -5.94345
C 3.07273 13.4741 5.94345
C 5.94356 -3.07246 -13.4741
C 5.94356 -3.07246 13.4741
C 5.94363 3.07245 -13.4741
C -5.94334 -3.07245 -13.4741
C -7.91817 -1.46411 13.4697
C -7.91813 1.46413 -13.4697
C -7.91813 1.46413 13.4697
C -1.46411 -13.4697 -7.91829
C -1.46411 -13.4697 7.91829
C -1.46384 13.4697 -7.91829
C -1.46384 13.4697 7.91829
C -13.4697 -7.91829 -1.46412
C -13.4697 -7.91829 1.46412
C -13.4695 7.91829 -1.46412
C -13.4695 7.91829 1.46412
C 13.4698 -7.9183 -1.46412
C 13.4698 -7.9183 1.46412
C 13.47 7.91829 -1.46412
C 13.47 7.91829 1.46412
C 1.46413 -13.4697 -7.91829
C 1.46413 -13.4697 7.91829
C 1.46439 13.4697 -7.91829
C 1.46439 13.4697 7.91829
C 7.91841 -1.46413 -13.4697
C 7.91841 -1.46413 13.4697
C 7.91846 1.46411 -13.4697
C -7.91817 -1.46411 -13.4697
C -7.40156 -2.92581 11.642
C -7.40147 2.92581 -11.642
C -7.40147 2.92581 11.642
C -2.92578 -11.642 -7.40166
C -2.92578 -11.642 7.40166
C -2.92555 11.642 -7.40165
C -2.92555 11.642 7.40165
C -11.6419 -7.40165 -2.9258
C -11.6419 -7.40165 2.9258
C -11.6418 7.40167 -2.92581
C -11.6418 7.40166 2.92581
C 11.6421 -7.40167 -2.92581
C 11.6421 -7.40166 2.92581
C 11.6422 7.40165 -2.9258
C 11.6422 7.40165 2.92581
C 2.92584 -11.642 -7.40165
C 2.92583 -11.642 7.40165
C 2.92606 11.642 -7.40166
C 2.92607 11.642 7.40166
C 7.40176 -2.92581 -11.642
C 7.40176 -2.92581 11.642
C 7.40184 2.92581 -11.642
C -7.40156 -2.92581 -11.642
C -4.57153 -5.45803 9.24332
C -4.57143 5.45807 -9.24334
C -4.57143 5.45807 9.24334
C -5.45798 -9.24331 -4.57161
C -5.45798 -9.24331 4.57161
C -5.45783 9.24335 -4.57163
C -5.45783 9.24335 4.57163
C -9.24326 -4.57163 -5.45806
C -9.24326 -4.57163 5.45806
C -9.24312 4.57162 -5.45803
C -9.24312 4.57162 5.45804
C 9.2434 -4.57162 -5.45803
C 9.2434 -4.57162 5.45803
C 9.24354 4.57163 -5.45806
C 9.24354 4.57163 5.45806
C 5.45811 -9.24335 -4.57163
C 5.45811 -9.24335 4.57163
C 5.45827 9.24331 -4.57161
C 5.45827 9.24331 4.57161
C 4.57171 -5.45807 -9.24334
C 4.57171 -5.45807 9.24334
C 4.57181 5.45803 -9.24332
C -4.57153 -5.45803 -9.24332
C -7.32483 -3.81626 9.55969
C -7.32472 3.81624 -9.55966
C -7.32472 3.81624 9.55967
C -3.8162 -9.55966 -7.32491
C -3.8162 -9.55966 7.32491
C -3.81602 9.55969 -7.32492
C -3.81602 9.55969 7.32492
C -9.5596 -7.32491 -3.81624
C -9.5596 -7.32491 3.81624
C -9.55946 7.32493 -3.81626
C -9.55946 7.32493 3.81626
C 9.55975 -7.32493 -3.81625
C 9.55975 -7.32493 3.81626
C 9.55989 7.32491 -3.81624
C 9.55989 7.32491 3.81624
C 3.8163 -9.55969 -7.32492
C 3.8163 -9.55969 7.32492
C 3.81648 9.55966 -7.32491
C 3.81648 9.55966 7.32491
C 7.325 -3.81624 -9.55966
C 7.325 -3.81624 9.55967
C 7.32511 3.81625 -9.55969
C -7.32483 -3.81626 -9.55968
C -5.24018 -4.99746 6.85518
C -5.24006 4.9975 -6.85519
C -5.24006 4.9975 6.85519
C -4.9974 -6.85517 -5.24025
C -4.9974 -6.85517 5.24025
C -4.99727 6.8552 -5.24027
C -4.99727 6.8552 5.24027
C -6.85511 -5.24025 -4.99748
C -6.85511 -5.24025 4.99748
C -6.85498 5.24027 -4.99748
C -6.85497 5.24027 4.99748
C 6.85526 -5.24027 -4.99748
C 6.85526 -5.24027 4.99748
C 6.8554 5.24025 -4.99748
C 6.8554 5.24025 4.99748
C 4.99755 -6.8552 -5.24027
C 4.99755 -6.8552 5.24027
C 4.99769 6.85517 -5.24025
C 4.99769 6.85517 5.24025
C 5.24034 -4.9975 -6.85519
C 5.24034 -4.9975 6.85519
C 5.24046 4.99746 -6.85518
C -5.24018 -4.99746 -6.85518
C -8.77029 -0.712709 12.5763
C -8.77025 0.712731 -12.5763
C -8.77025 0.712731 12.5763
C -0.712699 -12.5763 -8.77041
C -0.7127 -12.5763 8.77041
C -0.712459 12.5763 -8.77041
C -0.712458 12.5763 8.77041
C -12.5762 -8.77041 -0.712719
C -12.5762 -8.77041 0.712721
C -12.5761 8.77041 -0.71272
C -12.5761 8.77041 0.712721
C 12.5764 -8.77041 -0.71272
C 12.5764 -8.77041 0.712721
C 12.5765 8.77041 -0.712719
C 12.5765 8.77041 0.712721
C 0.712741 -12.5763 -8.77041
C 0.712741 -12.5763 8.77041
C 0.712982 12.5763 -8.77041
C 0.712982 12.5763 8.77041
C 8.77054 -0.712732 -12.5763
C 8.77054 -0.712732 12.5763
C 8.77057 0.712709 -12.5763
C -8.77029 -0.71271 -12.5763
C -9.97868 -0.708773 10.3558
C -9.97864 0.708787 -10.3558
C -9.97864 0.708788 10.3558
C -0.708737 -10.3558 -9.9788
C -0.708737 -10.3558 9.9788
C -0.708541 10.3558 -9.9788
C -0.70854 10.3558 9.97881
C -10.3557 -9.9788 -0.708779
C -10.3557 -9.9788 0.70878
C -10.3556 9.97881 -0.708781
C -10.3556 9.9788 0.70878
C 10.3558 -9.97881 -0.70878
C 10.3558 -9.9788 0.708781
C 10.356 9.9788 -0.708779
C 10.356 9.9788 0.708781
C 0.708823 -10.3558 -9.9788
C 0.708823 -10.3558 9.9788
C 0.709019 10.3558 -9.9788
C 0.70902 10.3558 9.9788
C 9.97892 -0.708788 -10.3558
C 9.97892 -0.708788 10.3558
C 9.97897 0.708773 -10.3558
C -9.97868 -0.708773 -10.3558
C -8.56618 -2.50364 10.9604
C -8.56608 2.50362 -10.9604
C -8.56608 2.50362 10.9604
C -2.50359 -10.9604 -8.56627
C -2.50359 -10.9604 8.56627
C -2.50338 10.9604 -8.56627
C -2.50338 10.9604 8.56627
C -10.9603 -8.56626 -2.50362
C -10.9603 -8.56626 2.50362
C -10.9602 8.56628 -2.50363
C -10.9602 8.56628 2.50363
C 10.9605 -8.56628 -2.50363
C 10.9605 -8.56628 2.50363
C 10.9606 8.56626 -2.50362
C 10.9606 8.56626 2.50363
C 2.50366 -10.9604 -8.56627
C 2.50366 -10.9604 8.56627
C 2.50388 10.9604 -8.56627
C 2.50388 10.9604 8.56627
C 8.56636 -2.50362 -10.9604
C 8.56636 -2.50362 10.9604
C 8.56646 2.50364 -10.9604
C -8.56618 -2.50364 -10.9604
C -11.0184 -0.701457 8.16074
C -11.0183 0.701447 -8.16071
C -11.0183 0.701447 8.16071
C -0.701379 -8.16072 -11.0185
C -0.701379 -8.16072 11.0185
C -0.701241 8.16073 -11.0185
C -0.701241 8.16073 11.0185
C -8.16067 -11.0185 -0.70145
C -8.16067 -11.0185 0.701451
C -8.16049 11.0185 -0.701453
C -8.16049 11.0185 0.701452
C 8.16077 -11.0185 -0.701452
C 8.16077 -11.0185 0.701453
C 8.16095 11.0185 -0.701449
C 8.16095 11.0185 0.701452
C 0.701524 -8.16073 -11.0185
C 0.701524 -8.16073 11.0185
C 0.701662 8.16072 -11.0185
C 0.701662 8.16072 11.0185
C 11.0186 -0.701447 -8.16071
C 11.0186 -0.701447 8.16071
C 11.0186 0.701456 -8.16074
C -11.0184 -0.701456 -8.16074
C 12.6061 0.733002 6.2581
C -12.6058 -0.733002 6.2581
C -12.6058 0.732995 -6.25808
C -12.6058 0.732995 6.25809
C -0.73291 -6.25809 -12.6059
C -0.73291 -6.25809 12.6059
C -0.732805 6.2581 -12.6059
C -0.732804 6.2581 12.6059
C -6.25806 -12.6059 -0.732996
C -6.25806 -12.6059 0.732997
C -6.25785 12.6059 -0.733001
C -6.25785 12.6059 0.733001
C 6.25813 -12.6059 -0.733
C 6.25813 -12.6059 0.733001
C 6.25834 12.6059 -0.732996
C 6.25834 12.6059 0.732998
C 0.733088 -6.2581 -12.6059
C 0.733088 -6.2581 12.6059
C 0.733193 6.25809 -12.6059
C 0.733193 6.25809 12.6059
C 12.606 -0.732995 -6.25808
C 12.606 -0.732995 6.25808
C 12.6061 0.733003 -6.2581
C -12.6058 -0.733003 -6.2581
C 10.8567 2.55477 6.64642
C -10.8564 -2.55477 6.64642
C -10.8562 2.55472 -6.64636
C -10.8562 2.55472 6.64636
C -2.55465 -6.64637 -10.8564
C -2.55465 -6.64638 10.8564
C -2.55455 6.6464 -10.8565
C -2.55455 6.6464 10.8565
C -6.64633 -10.8564 -2.55473
C -6.64633 -10.8564 2.55473
C -6.64616 10.8565 -2.55475
C -6.64616 10.8565 2.55476
C 6.64645 -10.8565 -2.55476
C 6.64645 -10.8565 2.55475
C 6.64661 10.8564 -2.55473
C 6.64661 10.8564 2.55473
C 2.55483 -6.6464 -10.8565
C 2.55483 -6.6464 10.8565
C 2.55494 6.64637 -10.8564
C 2.55494 6.64637 10.8564
C 10.8565 -2.55472 -6.64636
C 10.8565 -2.55472 6.64636
C 10.8567 2.55477 -6.64642
C -10.8564 -2.55477 -6.64642
C -6.75981 -4.19879 8.37653
C -6.75969 4.1988 -8.37652
C -6.75969 4.1988 8.37652
C -4.19873 -8.37651 -6.75988
C -4.19873 -8.37651 6.75988
C -4.19858 8.37654 -6.7599
C -4.19858 8.37654 6.7599
C -8.37646 -6.75988 -4.19879
C -8.37646 -6.75988 4.19879
C -8.37632 6.75991 -4.1988
C -8.37631 6.75991 4.1988
C 8.3766 -6.75991 -4.1988
C 8.3766 -6.75991 4.1988
C 8.37674 6.75988 -4.19879
C 8.37674 6.75988 4.19879
C 4.19886 -8.37654 -6.7599
C 4.19886 -8.37654 6.7599
C 4.19902 8.37651 -6.75988
C 4.19902 8.37651 6.75988
C 6.75998 -4.1988 -8.37652
C 6.75998 -4.1988 8.37652
C 6.76009 4.19879 -8.37653
C -6.75981 -4.19879 -8.37653
C 8.76887 3.86562 6.64839
C -8.76859 -3.86562 6.64839
C -8.76845 3.86559 -6.64836
C -8.76845 3.86559 6.64836
C -3.86552 -6.64836 -8.76865
C -3.86552 -6.64836 8.76865
C -3.8654 6.64839 -8.76867
C -3.8654 6.64839 8.76867
C -6.64831 -8.76864 -3.86559
C -6.64831 -8.76864 3.86559
C -6.64816 8.76868 -3.86562
C -6.64816 8.76868 3.86562
C 6.64844 -8.76868 -3.86562
C 6.64844 -8.76868 3.86562
C 6.64859 8.76864 -3.86559
C 6.64859 8.76864 3.86559
C 3.86569 -6.64839 -8.76867
C 3.86569 -6.64839 8.76867
C 3.86581 6.64836 -8.76865
C 3.86581 6.64836 8.76865
C 8.76874 -3.86559 -6.64836
C 8.76874 -3.86559 6.64836
C 8.76887 3.86562 -6.64839
C -8.76859 -3.86562 -6.64839
C 6.4152 4.55418 6.1362
C -6.41491 -4.55418 6.1362
C -6.41478 4.5542 -6.1362
C -6.41478 4.5542 6.1362
C -4.55411 -6.13618 -6.41497
C -4.55411 -6.13618 6.41498
C -4.55399 6.13621 -6.415
C -4.55399 6.13621 6.415
C -6.13612 -6.41497 -4.55418
C -6.13612 -6.41497 4.55418
C -6.13599 6.415 -4.5542
C -6.13599 6.415 4.5542
C 6.13627 -6.415 -4.5542
C 6.13627 -6.415 4.5542
C 6.1364 6.41497 -4.55418
C 6.13641 6.41497 4.55418
C 4.55427 -6.13621 -6.415
C 4.55427 -6.13621 6.415
C 4.5544 6.13618 -6.41498
C 4.5544 6.13618 6.41498
C 6.41506 -4.5542 -6.1362
C 6.41506 -4.5542 6.1362
C 6.4152 4.55418 -6.13619
C -6.41491 -4.55418 -6.13619
C 8
C oms. Timestep: 34320
C 5.3582 4.24256 11.351
C 9.5018 2.55407 8.70283
C 2.96089 5.18793 12.753
C 7.04434 2.42912 12.8753
C 5.44112 4.80715 8.28463
C 9.2452 1.35471 11.381
C 11.5166 1.35095 7.01186
C 7.40703 4.07833 7.07986
C 6.59823 3.78258 10.816
C 4.42417 5.07095 10.6416
C 5.06435 3.91345 12.7329
C 9.68702 3.01301 7.3543
C 8.55543 3.05508 9.63256
C 10.2371 1.39055 9.12273
C 1.73827 5.60764 13.4485
C 3.96893 4.47595 13.4621
C 3.30024 5.57396 11.4029
C 5.94362 3.07244 13.4741
C 7.91845 1.4641 13.4697
C 7.40184 2.92581 11.642
C 4.57181 5.45803 9.24332
C 7.32512 3.81627 9.5597
C 5.24047 4.99746 6.85518
C 8.77057 0.712702 12.5763
C 9.97897 0.708771 10.3558
C 8.56646 2.50364 10.9604
C 11.0186 0.701458 8.16074
C 6.7601 4.1988 8.37654
C -5.35791 -4.24256 11.351
C -5.35782 4.24257 -11.351
C -5.35782 4.24257 11.351
C -4.24251 -11.351 -5.35799
C -4.24251 -11.351 5.35799
C -4.24234 11.351 -5.35802
C -4.24234 11.351 5.35803
C -11.3509 -5.35801 -4.24257
C -11.3509 -5.35801 4.24257
C -11.3508 5.35801 -4.24256
C -11.3508 5.35801 4.24256
C 11.3511 -5.35801 -4.24256
C 11.3511 -5.35801 4.24256
C 11.3512 5.35801 -4.24257
C 11.3512 5.35801 4.24257
C 4.24262 -11.351 -5.35802
C 4.24262 -11.351 5.35803
C 4.2428 11.351 -5.35799
C 4.2428 11.351 5.35799
C 5.35811 -4.24257 -11.351
C 5.35811 -4.24257 11.351
C 5.3582 4.24256 -11.351
C -5.35791 -4.24256 -11.351
C -9.50152 -2.55407 8.70283
C -9.50139 2.55402 -8.70277
C -9.50139 2.55402 8.70277
C -2.55396 -8.70278 -9.50158
C -2.55396 -8.70278 9.50158
C -2.55384 8.70282 -9.50161
C -2.55384 8.70282 9.50161
C -8.70274 -9.50158 -2.55404
C -8.70274 -9.50158 2.55404
C -8.70258 9.50161 -2.55405
C -8.70258 9.50161 2.55405
C 8.70286 -9.50161 -2.55405
C 8.70286 -9.50161 2.55405
C 8.70302 9.50158 -2.55404
C 8.70302 9.50158 2.55404
C 2.55412 -8.70282 -9.50161
C 2.55412 -8.70282 9.50161
C 2.55425 8.70278 -9.50158
C 2.55425 8.70278 9.50158
C 9.50167 -2.55402 -8.70277
C 9.50167 -2.55402 8.70277
C 9.5018 2.55407 -8.70283
C -9.50152 -2.55407 -8.70283
C -2.96061 -5.18793 12.753
C -2.96052 5.18794 -12.753
C -2.96052 5.18794 12.753
C -5.1879 -12.753 -2.9607
C -5.1879 -12.753 2.9607
C -5.18768 12.7531 -2.96071
C -5.18768 12.7531 2.96071
C -12.753 -2.96071 -5.18794
C -12.753 -2.96071 5.18795
C -12.7528 2.9607 -5.18792
C -12.7528 2.9607 5.18792
C 12.7531 -2.9607 -5.18792
C 12.7531 -2.9607 5.18792
C 12.7532 2.96071 -5.18794
C 12.7532 2.96071 5.18795
C 5.18797 -12.7531 -2.96071
C 5.18797 -12.7531 2.96071
C 5.18818 12.753 -2.9607
C 5.18818 12.753 2.9607
C 2.9608 -5.18794 -12.753
C 2.9608 -5.18794 12.753
C 2.96089 5.18793 -12.753
C -2.96061 -5.18793 -12.753
C -7.04405 -2.42913 12.8753
C -7.04401 2.42915 -12.8753
C -7.04401 2.42915 12.8753
C -2.4291 -12.8753 -7.04416
C -2.4291 -12.8753 7.04416
C -2.42889 12.8753 -7.04418
C -2.42889 12.8753 7.04418
C -12.8753 -7.04417 -2.42914
C -12.8753 -7.04417 2.42914
C -12.8751 7.04417 -2.42914
C -12.8751 7.04417 2.42914
C 12.8754 -7.04417 -2.42914
C 12.8754 -7.04417 2.42914
C 12.8755 7.04417 -2.42914
C 12.8755 7.04417 2.42914
C 2.42917 -12.8753 -7.04418
C 2.42917 -12.8753 7.04418
C 2.42939 12.8753 -7.04416
C 2.42939 12.8753 7.04416
C 7.04429 -2.42915 -12.8753
C 7.04429 -2.42915 12.8753
C 7.04434 2.42912 -12.8753
C -7.04405 -2.42913 -12.8753
C -5.44083 -4.80715 8.28463
C -5.44071 4.80718 -8.28463
C -5.44071 4.80718 8.28463
C -4.80709 -8.2846 -5.44089
C -4.80709 -8.2846 5.44089
C -4.80696 8.28466 -5.44093
C -4.80696 8.28466 5.44093
C -8.28457 -5.44091 -4.80717
C -8.28457 -5.44091 4.80717
C -8.28441 5.44092 -4.80716
C -8.28441 5.44092 4.80716
C 8.2847 -5.44092 -4.80716
C 8.2847 -5.44092 4.80716
C 8.28485 5.44091 -4.80717
C 8.28485 5.44091 4.80717
C 4.80724 -8.28466 -5.44093
C 4.80724 -8.28466 5.44093
C 4.80737 8.2846 -5.44089
C 4.80737 8.2846 5.44089
C 5.44099 -4.80718 -8.28463
C 5.44099 -4.80718 8.28463
C 5.44112 4.80715 -8.28463
C -5.44083 -4.80715 -8.28463
C -9.24491 -1.35471 11.381
C -9.24486 1.35473 -11.3809
C -9.24486 1.35473 11.3809
C -1.35467 -11.3809 -9.24502
C -1.35467 -11.3809 9.24502
C -1.35448 11.381 -9.24503
C -1.35448 11.381 9.24503
C -11.3809 -9.24502 -1.35472
C -11.3809 -9.24502 1.35472
C -11.3807 9.24503 -1.35472
C -11.3807 9.24503 1.35472
C 11.381 -9.24503 -1.35472
C 11.381 -9.24503 1.35472
C 11.3812 9.24502 -1.35472
C 11.3812 9.24502 1.35472
C 1.35477 -11.381 -9.24503
C 1.35477 -11.381 9.24503
C 1.35496 11.3809 -9.24502
C 1.35496 11.3809 9.24502
C 9.24514 -1.35473 -11.3809
C 9.24514 -1.35473 11.3809
C 9.2452 1.35471 -11.381
C -9.24491 -1.35471 -11.381
C -11.5163 -1.35095 7.01186
C -11.5162 1.35091 -7.01179
C -11.5162 1.35091 7.0118
C -1.35084 -7.01181 -11.5164
C -1.35084 -7.01181 11.5164
C -1.35074 7.01184 -11.5164
C -1.35074 7.01184 11.5164
C -7.01177 -11.5164 -1.35093
C -7.01177 -11.5164 1.35093
C -7.01159 11.5164 -1.35094
C -7.01159 11.5164 1.35094
C 7.01188 -11.5164 -1.35094
C 7.01188 -11.5164 1.35094
C 7.01206 11.5164 -1.35093
C 7.01206 11.5164 1.35093
C 1.35102 -7.01184 -11.5164
C 1.35102 -7.01184 11.5164
C 1.35112 7.01181 -11.5164
C 1.35112 7.01181 11.5164
C 11.5165 -1.35091 -7.01179
C 11.5165 -1.35091 7.0118
C 11.5166 1.35095 -7.01186
C -11.5163 -1.35095 -7.01186
C -7.40675 -4.07833 7.07986
C -7.4066 4.07831 -7.07983
C -7.4066 4.07831 7.07983
C -4.07824 -7.07982 -7.4068
C -4.07824 -7.07982 7.4068
C -4.07813 7.07987 -7.40683
C -4.07813 7.07987 7.40684
C -7.07978 -7.40679 -4.07831
C -7.07978 -7.40679 4.07831
C -7.07963 7.40684 -4.07833
C -7.07963 7.40684 4.07834
C 7.07992 -7.40684 -4.07833
C 7.07992 -7.40684 4.07834
C 7.08006 7.40679 -4.07831
C 7.08006 7.40679 4.07831
C 4.07841 -7.07987 -7.40683
C 4.07841 -7.07987 7.40684
C 4.07852 7.07982 -7.4068
C 4.07852 7.07982 7.4068
C 7.40688 -4.07831 -7.07983
C 7.40688 -4.07831 7.07983
C 7.40703 4.07833 -7.07986
C -7.40675 -4.07833 -7.07986
C -6.59794 -3.78258 10.816
C -6.59784 3.78256 -10.8159
C -6.59784 3.78256 10.8159
C -3.78251 -10.8159 -6.59801
C -3.78251 -10.8159 6.59801
C -3.78235 10.816 -6.59805
C -3.78235 10.816 6.59805
C -10.8159 -6.59803 -3.78257
C -10.8159 -6.59803 3.78257
C -10.8157 6.59804 -3.78257
C -10.8157 6.59804 3.78257
C 10.816 -6.59804 -3.78257
C 10.816 -6.59804 3.78257
C 10.8162 6.59803 -3.78257
C 10.8162 6.59803 3.78257
C 3.78263 -10.816 -6.59805
C 3.78263 -10.816 6.59805
C 3.78279 10.8159 -6.59801
C 3.78279 10.8159 6.59801
C 6.59813 -3.78256 -10.8159
C 6.59813 -3.78256 10.8159
C 6.59823 3.78258 -10.816
C -6.59794 -3.78258 -10.816
C -4.42389 -5.07095 10.6416
C -4.4238 5.07097 -10.6416
C -4.4238 5.07097 10.6416
C -5.0709 -10.6416 -4.42396
C -5.0709 -10.6416 4.42396
C -5.07074 10.6416 -4.424
C -5.07074 10.6416 4.424
C -10.6415 -4.42399 -5.07097
C -10.6415 -4.42399 5.07098
C -10.6414 4.42397 -5.07094
C -10.6414 4.42397 5.07094
C 10.6416 -4.42397 -5.07094
C 10.6416 -4.42397 5.07094
C 10.6418 4.42399 -5.07097
C 10.6418 4.42399 5.07098
C 5.07102 -10.6416 -4.424
C 5.07102 -10.6416 4.424
C 5.07118 10.6416 -4.42396
C 5.07118 10.6416 4.42396
C 4.42408 -5.07097 -10.6416
C 4.42408 -5.07097 10.6416
C 4.42417 5.07095 -10.6416
C -4.42389 -5.07095 -10.6416
C -5.06407 -3.91345 12.7329
C -5.064 3.91346 -12.7329
C -5.064 3.91346 12.7329
C -3.91343 -12.7329 -5.06416
C -3.91343 -12.7329 5.06416
C -3.9132 12.7329 -5.06418
C -3.9132 12.7329 5.06419
C -12.7328 -5.06418 -3.91346
C -12.7328 -5.06418 3.91346
C -12.7327 5.06417 -3.91345
C -12.7327 5.06417 3.91346
C 12.7329 -5.06417 -3.91345
C 12.7329 -5.06417 3.91346
C 12.7331 5.06418 -3.91346
C 12.7331 5.06418 3.91346
C 3.91349 -12.7329 -5.06418
C 3.91349 -12.7329 5.06419
C 3.91371 12.7329 -5.06416
C 3.91371 12.7329 5.06416
C 5.06428 -3.91346 -12.7329
C 5.06428 -3.91346 12.7329
C 5.06435 3.91345 -12.7329
C -5.06407 -3.91345 -12.7329
C -9.68674 -3.01301 7.3543
C -9.68659 3.01296 -7.35423
C -9.68659 3.01296 7.35424
C -3.01289 -7.35425 -9.68679
C -3.01289 -7.35425 9.68679
C -3.01279 7.35429 -9.68682
C -3.01279 7.35429 9.68683
C -7.35421 -9.68678 -3.01297
C -7.35421 -9.68678 3.01298
C -7.35405 9.68683 -3.013
C -7.35405 9.68683 3.013
C 7.35433 -9.68683 -3.013
C 7.35433 -9.68683 3.013
C 7.35449 9.68678 -3.01297
C 7.35449 9.68678 3.01298
C 3.01308 -7.35429 -9.68682
C 3.01308 -7.35429 9.68683
C 3.01318 7.35425 -9.68679
C 3.01318 7.35425 9.68679
C 9.68688 -3.01296 -7.35423
C 9.68688 -3.01296 7.35424
C 9.68702 3.01301 -7.3543
C -9.68674 -3.01301 -7.3543
C -8.55515 -3.05508 9.63256
C -8.55502 3.05504 -9.6325
C -8.55502 3.05504 9.6325
C -3.05499 -9.6325 -8.55521
C -3.05499 -9.6325 8.55521
C -3.05485 9.63255 -8.55525
C -3.05485 9.63255 8.55525
C -9.63247 -8.55522 -3.05506
C -9.63247 -8.55522 3.05506
C -9.63231 8.55524 -3.05506
C -9.63231 8.55524 3.05506
C 9.63259 -8.55524 -3.05506
C 9.63259 -8.55524 3.05506
C 9.63275 8.55522 -3.05506
C 9.63275 8.55522 3.05506
C 3.05514 -9.63255 -8.55525
C 3.05514 -9.63255 8.55525
C 3.05527 9.6325 -8.55521
C 3.05527 9.6325 8.55521
C 8.5553 -3.05504 -9.6325
C 8.5553 -3.05504 9.6325
C 8.55543 3.05508 -9.63256
C -8.55515 -3.05508 -9.63256
C -10.2368 -1.39055 9.12273
C -10.2367 1.39054 -9.12268
C -10.2367 1.39054 9.12268
C -1.39047 -9.12269 -10.2369
C -1.39047 -9.12269 10.2369
C -1.39033 9.12272 -10.2369