LAMMPS data file. CGCMM style. atom_style atomic generated by VMD/TopoTools v1.6 on Tue May 03 11:34:38 EDT 2016
 192 atoms
 0 bonds
 0 angles
 0 dihedrals
 0 impropers
 1 atom types
 0 bond types
 0 angle types
 0 dihedral types
 0 improper types
 0.016000 14.927000  xlo xhi
 0.005000 14.916000  ylo yhi
 0.017500 14.928500  zlo zhi

# Pair Coeffs
#
# 1  C

 Masses

 1 12.010700 # C

 Atoms

1 1 5.919000 0.714000 4.146000 # C
2 1 13.374000 8.170000 11.602000 # C
3 1 9.024000 14.207000 4.146000 # C
4 1 1.569000 6.751000 11.602000 # C
5 1 9.024000 0.714000 10.799000 # C
6 1 1.569000 8.170000 3.344000 # C
7 1 5.919000 14.207000 10.799000 # C
8 1 13.374000 6.751000 3.344000 # C
9 1 4.145000 5.908000 0.727000 # C
10 1 11.600000 13.363000 8.182000 # C
11 1 4.145000 9.013000 14.219000 # C
12 1 11.600000 1.558000 6.763000 # C
13 1 10.798000 9.013000 0.727000 # C
14 1 3.342000 1.558000 8.182000 # C
15 1 10.798000 5.908000 14.219000 # C
16 1 3.342000 13.363000 6.763000 # C
17 1 0.725000 4.134000 5.920000 # C
18 1 8.181000 11.590000 13.375000 # C
19 1 14.218000 4.134000 9.026000 # C
20 1 6.762000 11.590000 1.570000 # C
21 1 0.725000 10.787000 9.026000 # C
22 1 8.181000 3.332000 1.570000 # C
23 1 14.218000 10.787000 5.920000 # C
24 1 6.762000 3.332000 13.375000 # C
25 1 0.725000 5.908000 10.799000 # C
26 1 8.181000 13.363000 3.344000 # C
27 1 14.218000 9.013000 10.799000 # C
28 1 6.762000 1.558000 3.344000 # C
29 1 0.725000 9.013000 4.146000 # C
30 1 8.181000 1.558000 11.602000 # C
31 1 14.218000 5.908000 4.146000 # C
32 1 6.762000 13.363000 11.602000 # C
33 1 5.919000 4.134000 14.219000 # C
34 1 13.374000 11.590000 6.763000 # C
35 1 9.024000 4.134000 0.727000 # C
36 1 1.569000 11.590000 8.182000 # C
37 1 9.024000 10.787000 14.219000 # C
38 1 1.569000 3.332000 6.763000 # C
39 1 5.919000 10.787000 0.727000 # C
40 1 13.374000 3.332000 8.182000 # C
41 1 4.145000 0.714000 9.026000 # C
42 1 11.600000 8.170000 1.570000 # C
43 1 4.145000 14.207000 5.920000 # C
44 1 11.600000 6.751000 13.375000 # C
45 1 10.798000 0.714000 5.920000 # C
46 1 3.342000 8.170000 13.375000 # C
47 1 10.798000 14.207000 9.026000 # C
48 1 3.342000 6.751000 1.570000 # C
49 1 9.024000 14.207000 10.799000 # C
50 1 1.569000 6.751000 3.344000 # C
51 1 5.919000 0.714000 10.799000 # C
52 1 13.374000 8.170000 3.344000 # C
53 1 5.919000 14.207000 4.146000 # C
54 1 13.374000 6.751000 11.602000 # C
55 1 9.024000 0.714000 4.146000 # C
56 1 1.569000 8.170000 11.602000 # C
57 1 10.798000 9.013000 14.219000 # C
58 1 3.342000 1.558000 6.763000 # C
59 1 10.798000 5.908000 0.727000 # C
60 1 3.342000 13.363000 8.182000 # C
61 1 4.145000 5.908000 14.219000 # C
62 1 11.600000 13.363000 6.763000 # C
63 1 4.145000 9.013000 0.727000 # C
64 1 11.600000 1.558000 8.182000 # C
65 1 14.218000 10.787000 9.026000 # C
66 1 6.762000 3.332000 1.570000 # C
67 1 0.725000 10.787000 5.920000 # C
68 1 8.181000 3.332000 13.375000 # C
69 1 14.218000 4.134000 5.920000 # C
70 1 6.762000 11.590000 13.375000 # C
71 1 0.725000 4.134000 9.026000 # C
72 1 8.181000 11.590000 1.570000 # C
73 1 14.218000 9.013000 4.146000 # C
74 1 6.762000 1.558000 11.602000 # C
75 1 0.725000 5.908000 4.146000 # C
76 1 8.181000 13.363000 11.602000 # C
77 1 14.218000 5.908000 10.799000 # C
78 1 6.762000 13.363000 3.344000 # C
79 1 0.725000 9.013000 10.799000 # C
80 1 8.181000 1.558000 3.344000 # C
81 1 9.024000 10.787000 0.727000 # C
82 1 1.569000 3.332000 8.182000 # C
83 1 5.919000 10.787000 14.219000 # C
84 1 13.374000 3.332000 6.763000 # C
85 1 5.919000 4.134000 0.727000 # C
86 1 13.374000 11.590000 8.182000 # C
87 1 9.024000 4.134000 14.219000 # C
88 1 1.569000 11.590000 6.763000 # C
89 1 10.798000 14.207000 5.920000 # C
90 1 3.342000 6.751000 13.375000 # C
91 1 10.798000 0.714000 9.026000 # C
92 1 3.342000 8.170000 1.570000 # C
93 1 4.145000 14.207000 9.026000 # C
94 1 11.600000 6.751000 1.570000 # C
95 1 4.145000 0.714000 5.920000 # C
96 1 11.600000 8.170000 13.375000 # C
97 1 4.829000 1.351000 4.830000 # C
98 1 4.317000 2.571000 4.318000 # C
99 1 12.284000 8.806000 12.286000 # C
100 1 11.772000 10.026000 11.774000 # C
101 1 10.114000 13.571000 4.830000 # C
102 1 10.626000 12.351000 4.318000 # C
103 1 2.658000 6.115000 12.286000 # C
104 1 3.170000 4.895000 11.774000 # C
105 1 10.114000 1.351000 10.115000 # C
106 1 10.626000 2.571000 10.627000 # C
107 1 2.658000 8.806000 2.660000 # C
108 1 3.170000 10.026000 3.172000 # C
109 1 4.829000 13.571000 10.115000 # C
110 1 4.317000 12.351000 10.627000 # C
111 1 12.284000 6.115000 2.660000 # C
112 1 11.772000 4.895000 3.172000 # C
113 1 4.829000 4.818000 1.363000 # C
114 1 4.317000 4.306000 2.583000 # C
115 1 12.284000 12.274000 8.818000 # C
116 1 11.772000 11.762000 10.038000 # C
117 1 4.829000 10.103000 13.583000 # C
118 1 4.317000 10.615000 12.363000 # C
119 1 12.284000 2.648000 6.127000 # C
120 1 11.772000 3.160000 4.907000 # C
121 1 10.114000 10.103000 1.363000 # C
122 1 10.626000 10.615000 2.583000 # C
123 1 2.658000 2.648000 8.818000 # C
124 1 3.170000 3.160000 10.038000 # C
125 1 10.114000 4.818000 13.583000 # C
126 1 10.626000 4.306000 12.363000 # C
127 1 2.658000 12.274000 6.127000 # C
128 1 3.170000 11.762000 4.907000 # C
129 1 1.361000 4.818000 4.830000 # C
130 1 2.581000 4.306000 4.318000 # C
131 1 8.817000 12.274000 12.286000 # C
132 1 10.037000 11.762000 11.774000 # C
133 1 13.581000 4.818000 10.115000 # C
134 1 12.361000 4.306000 10.627000 # C
135 1 6.126000 12.274000 2.660000 # C
136 1 4.906000 11.762000 3.172000 # C
137 1 1.361000 10.103000 10.115000 # C
138 1 2.581000 10.615000 10.627000 # C
139 1 8.817000 2.648000 2.660000 # C
140 1 10.037000 3.160000 3.172000 # C
141 1 13.581000 10.103000 4.830000 # C
142 1 12.361000 10.615000 4.318000 # C
143 1 6.126000 2.648000 12.286000 # C
144 1 4.906000 3.160000 11.774000 # C
145 1 1.361000 4.818000 10.115000 # C
146 1 2.581000 4.306000 10.627000 # C
147 1 8.817000 12.274000 2.660000 # C
148 1 10.037000 11.762000 3.172000 # C
149 1 13.581000 10.103000 10.115000 # C
150 1 12.361000 10.615000 10.627000 # C
151 1 6.126000 2.648000 2.660000 # C
152 1 4.906000 3.160000 3.172000 # C
153 1 1.361000 10.103000 4.830000 # C
154 1 2.581000 10.615000 4.318000 # C
155 1 8.817000 2.648000 12.286000 # C
156 1 10.037000 3.160000 11.774000 # C
157 1 13.581000 4.818000 4.830000 # C
158 1 12.361000 4.306000 4.318000 # C
159 1 6.126000 12.274000 12.286000 # C
160 1 4.906000 11.762000 11.774000 # C
161 1 4.829000 4.818000 13.583000 # C
162 1 4.317000 4.306000 12.363000 # C
163 1 12.284000 12.274000 6.127000 # C
164 1 11.772000 11.762000 4.907000 # C
165 1 10.114000 4.818000 1.363000 # C
166 1 10.626000 4.306000 2.583000 # C
167 1 2.658000 12.274000 8.818000 # C
168 1 3.170000 11.762000 10.038000 # C
169 1 10.114000 10.103000 13.583000 # C
170 1 10.626000 10.615000 12.363000 # C
171 1 2.658000 2.648000 6.127000 # C
172 1 3.170000 3.160000 4.907000 # C
173 1 4.829000 10.103000 1.363000 # C
174 1 4.317000 10.615000 2.583000 # C
175 1 12.284000 2.648000 8.818000 # C
176 1 11.772000 3.160000 10.038000 # C
177 1 4.829000 1.351000 10.115000 # C
178 1 4.317000 2.571000 10.627000 # C
179 1 12.284000 8.806000 2.660000 # C
180 1 11.772000 10.026000 3.172000 # C
181 1 4.829000 13.571000 4.830000 # C
182 1 4.317000 12.351000 4.318000 # C
183 1 12.284000 6.115000 12.286000 # C
184 1 11.772000 4.895000 11.774000 # C
185 1 10.114000 1.351000 4.830000 # C
186 1 10.626000 2.571000 4.318000 # C
187 1 2.658000 8.806000 12.286000 # C
188 1 3.170000 10.026000 11.774000 # C
189 1 10.114000 13.571000 10.115000 # C
190 1 10.626000 12.351000 10.627000 # C
191 1 2.658000 6.115000 2.660000 # C
192 1 3.170000 4.895000 3.172000 # C

