192
Atoms. Timestep: 431
1 5.91838 0.71442 4.14598
1 13.3741 8.17008 11.6016
1 9.02444 14.2069 4.14598
1 1.56871 6.75126 11.6016
1 9.02432 0.714435 10.7995
1 1.56873 8.17009 3.34386
1 5.9185 14.2069 10.7995
1 13.3741 6.75124 3.34386
1 4.14462 5.90769 0.726509
1 11.6004 13.3634 8.18216
1 4.14467 9.01363 14.219
1 11.6002 1.55797 6.76333
1 10.7982 9.01364 0.726509
1 3.34247 1.55798 8.18216
1 10.7982 5.9077 14.219
1 3.34257 13.3634 6.76333
1 0.725136 4.13391 5.91978
1 8.18087 11.5896 13.3754
1 14.2176 4.13389 9.02572
1 6.76203 11.5896 1.57006
1 0.725202 10.7874 9.02572
1 8.18078 3.33178 1.57006
1 14.2177 10.7874 5.91978
1 6.76195 3.33177 13.3754
1 0.725146 5.90771 10.7995
1 8.18088 13.3634 3.34386
1 14.2177 9.01363 10.7995
1 6.76194 1.55797 3.34386
1 0.725192 9.01364 4.14598
1 8.18077 1.55799 11.6016
1 14.2176 5.90769 4.14598
1 6.76204 13.3633 11.6016
1 5.9184 4.13389 14.219
1 13.3741 11.5895 6.76333
1 9.02434 4.13391 0.726511
1 1.56876 11.5896 8.18217
1 9.02441 10.7874 14.219
1 1.56868 3.33178 6.76333
1 5.91848 10.7874 0.726511
1 13.3741 3.33177 8.18217
1 4.14458 0.714427 9.02572
1 11.6003 8.17008 1.57006
1 4.1447 14.2069 5.91978
1 11.6003 6.75125 13.3754
1 10.7981 0.714427 5.91978
1 3.34253 8.17008 13.3754
1 10.7982 14.2069 9.02572
1 3.3425 6.75125 1.57006
1 9.02444 14.2069 10.7995
1 1.56871 6.75126 3.34386
1 5.91838 0.71442 10.7995
1 13.3741 8.17008 3.34386
1 5.9185 14.2069 4.14598
1 13.3741 6.75124 11.6016
1 9.02432 0.714435 4.14598
1 1.56873 8.17009 11.6016
1 10.7982 9.01364 14.219
1 3.34247 1.55798 6.76333
1 10.7982 5.9077 0.726511
1 3.34257 13.3634 8.18217
1 4.14462 5.90769 14.219
1 11.6004 13.3634 6.76333
1 4.14467 9.01363 0.726511
1 11.6002 1.55797 8.18217
1 14.2177 10.7874 9.02572
1 6.76195 3.33177 1.57006
1 0.725202 10.7874 5.91978
1 8.18078 3.33178 13.3754
1 14.2176 4.13389 5.91978
1 6.76203 11.5896 13.3754
1 0.725136 4.13391 9.02572
1 8.18087 11.5896 1.57006
1 14.2177 9.01363 4.14598
1 6.76194 1.55797 11.6016
1 0.725146 5.90771 4.14598
1 8.18088 13.3634 11.6016
1 14.2176 5.90769 10.7995
1 6.76204 13.3633 3.34386
1 0.725192 9.01364 10.7995
1 8.18077 1.55799 3.34386
1 9.02441 10.7874 0.726509
1 1.56868 3.33178 8.18216
1 5.91848 10.7874 14.219
1 13.3741 3.33177 6.76333
1 5.9184 4.13389 0.726509
1 13.3741 11.5895 8.18216
1 9.02434 4.13391 14.219
1 1.56876 11.5896 6.76333
1 10.7982 14.2069 5.91978
1 3.3425 6.75125 13.3754
1 10.7981 0.714427 9.02572
1 3.34253 8.17008 1.57006
1 4.1447 14.2069 9.02572
1 11.6003 6.75125 1.57006
1 4.14458 0.714427 5.91978
1 11.6003 8.17008 13.3754
1 4.82857 1.35056 4.82997
1 4.3167 2.57064 4.31809
1 12.2843 8.80621 12.2856
1 11.7724 10.0263 11.7737
1 10.1142 13.5708 4.82997
1 10.6261 12.3507 4.31809
1 2.65852 6.11512 12.2856
1 3.17038 4.89503 11.7737
1 10.1141 1.35056 10.1155
1 10.626 2.57064 10.6274
1 2.65856 8.80622 2.65989
1 3.17045 10.0263 3.17176
1 4.82867 13.5708 10.1155
1 4.31679 12.3507 10.6274
1 12.2843 6.11512 2.65989
1 11.7724 4.89503 3.17176
1 4.82859 4.81787 1.36264
1 4.31671 4.306 2.58272
1 12.2843 12.2735 8.8183
1 11.7724 11.7617 10.0384
1 4.82865 10.1034 13.5829
1 4.31678 10.6153 12.3628
1 12.2842 2.64779 6.1272
1 11.7724 3.15967 4.90711
1 10.1142 10.1035 1.36264
1 10.6261 10.6153 2.58272
1 2.6585 2.64781 8.8183
1 3.17038 3.15968 10.0384
1 10.1142 4.81789 13.5829
1 10.626 4.30601 12.3628
1 2.65858 12.2735 6.1272
1 3.17045 11.7617 4.90711
1 1.36127 4.81789 4.82997
1 2.58135 4.30601 4.31809
1 8.817 12.2735 12.2856
1 10.0371 11.7617 11.7737
1 13.5815 4.81787 10.1155
1 12.3614 4.306 10.6274
1 6.12591 12.2735 2.65989
1 4.90582 11.7617 3.17176
1 1.36133 10.1035 10.1155
1 2.58142 10.6153 10.6274
1 8.81691 2.64781 2.65989
1 10.037 3.15968 3.17176
1 13.5815 10.1034 4.82997
1 12.3615 10.6153 4.31809
1 6.12581 2.64779 12.2856
1 4.90573 3.15967 11.7737
1 1.36127 4.81789 10.1155
1 2.58135 4.30601 10.6274
1 8.817 12.2735 2.65988
1 10.0371 11.7617 3.17175
1 13.5815 10.1034 10.1155
1 12.3615 10.6153 10.6274
1 6.12581 2.64779 2.65988
1 4.90573 3.15967 3.17175
1 1.36133 10.1035 4.82996
1 2.58142 10.6153 4.31809
1 8.81691 2.64781 12.2856
1 10.037 3.15968 11.7737
1 13.5815 4.81787 4.82996
1 12.3614 4.306 4.31809
1 6.12591 12.2735 12.2856
1 4.90582 11.7617 11.7737
1 4.82859 4.81787 13.5829
1 4.31671 4.306 12.3628
1 12.2843 12.2735 6.1272
1 11.7724 11.7617 4.90712
1 10.1142 4.81789 1.36264
1 10.626 4.30601 2.58273
1 2.65858 12.2735 8.8183
1 3.17045 11.7617 10.0384
1 10.1142 10.1035 13.5829
1 10.6261 10.6153 12.3628
1 2.6585 2.64781 6.1272
1 3.17038 3.15968 4.90712
1 4.82865 10.1034 1.36264
1 4.31678 10.6153 2.58273
1 12.2842 2.64779 8.8183
1 11.7724 3.15967 10.0384
1 4.82857 1.35056 10.1155
1 4.3167 2.57064 10.6274
1 12.2843 8.80621 2.65988
1 11.7724 10.0263 3.17175
1 4.82867 13.5708 4.82996
1 4.31679 12.3507 4.31809
1 12.2843 6.11512 12.2856
1 11.7724 4.89503 11.7737
1 10.1141 1.35056 4.82996
1 10.626 2.57064 4.31809
1 2.65856 8.80622 12.2856
1 3.17045 10.0263 11.7737
1 10.1142 13.5708 10.1155
1 10.6261 12.3507 10.6274
1 2.65852 6.11512 2.65988
1 3.17038 4.89503 3.17175
